PROCAR lm decomposed
# of k-points:   16         # of bands:   60         # of ions:   22

 k-point     1 :    0.00000000 0.00000000 0.00000000     weight = 0.03333333

band     1 # energy  -21.23046192 # occ.  1.00000000
 
ion      s     py     pz     px    dxy    dyz    dz2    dxz  x2-y2    tot
    1  0.008  0.000  0.000  0.000  0.000  0.000  0.000  0.001  0.000  0.009
    2  0.008  0.000  0.000  0.000  0.001  0.001  0.000  0.000  0.000  0.009
    3  0.089  0.000  0.004  0.000  0.000  0.000  0.000  0.000  0.000  0.094
    4  0.089  0.000  0.004  0.000  0.000  0.000  0.000  0.000  0.000  0.094
    5  0.000  0.000  0.000  0.000  0.000  0.000  0.000  0.000  0.000  0.000
    6  0.000  0.000  0.000  0.000  0.000  0.000  0.000  0.000  0.000  0.000
    7  0.000  0.000  0.000  0.000  0.000  0.000  0.000  0.000  0.000  0.000
    8  0.000  0.000  0.000  0.000  0.000  0.000  0.000  0.000  0.000  0.000
    9  0.000  0.000  0.000  0.000  0.000  0.000  0.000  0.000  0.000  0.000
   10  0.000  0.000  0.000  0.000  0.000  0.000  0.000  0.000  0.000  0.000
   11  0.000  0.000  0.000  0.000  0.000  0.000  0.000  0.000  0.000  0.000
   12  0.000  0.000  0.000  0.000  0.000  0.000  0.000  0.000  0.000  0.000
   13  0.001  0.000  0.000  0.000  0.000  0.000  0.000  0.000  0.000  0.002
   14  0.000  0.000  0.000  0.000  0.000  0.000  0.000  0.000  0.000  0.000
   15  0.001  0.000  0.000  0.000  0.000  0.000  0.000  0.000  0.000  0.002
   16  0.000  0.000  0.000  0.000  0.000  0.000  0.000  0.000  0.000  0.000
   17  0.080  0.004  0.001  0.001  0.000  0.000  0.000  0.000  0.000  0.086
   18  0.079  0.005  0.000  0.001  0.000  0.000  0.000  0.000  0.000  0.085
   19  0.079  0.004  0.001  0.001  0.000  0.000  0.000  0.000  0.000  0.086
   20  0.079  0.005  0.000  0.001  0.000  0.000  0.000  0.000  0.000  0.085
   21  0.136  0.000  0.003  0.003  0.000  0.000  0.000  0.000  0.000  0.142
   22  0.136  0.000  0.003  0.003  0.000  0.000  0.000  0.000  0.000  0.142
tot    0.785  0.020  0.017  0.011  0.001  0.001  0.000  0.001  0.000  0.836
 
band     2 # energy  -20.98175069 # occ.  1.00000000
 
ion      s     py     pz     px    dxy    dyz    dz2    dxz  x2-y2    tot
    1  0.000  0.004  0.001  0.000  0.000  0.000  0.000  0.000  0.000  0.005
    2  0.000  0.001  0.003  0.000  0.000  0.000  0.000  0.000  0.000  0.005
    3  0.096  0.000  0.004  0.000  0.000  0.000  0.000  0.000  0.000  0.101
    4  0.096  0.000  0.004  0.000  0.000  0.000  0.000  0.000  0.000  0.101
    5  0.000  0.000  0.000  0.000  0.000  0.000  0.000  0.000  0.000  0.000
    6  0.000  0.000  0.000  0.000  0.000  0.000  0.000  0.000  0.000  0.000
    7  0.000  0.000  0.000  0.000  0.000  0.000  0.000  0.000  0.000  0.000
    8  0.000  0.000  0.000  0.000  0.000  0.000  0.000  0.000  0.000  0.000
    9  0.000  0.000  0.000  0.000  0.000  0.000  0.000  0.000  0.000  0.000
   10  0.000  0.000  0.000  0.000  0.000  0.000  0.000  0.000  0.000  0.000
   11  0.000  0.000  0.000  0.000  0.000  0.000  0.000  0.000  0.000  0.000
   12  0.000  0.000  0.000  0.000  0.000  0.000  0.000  0.000  0.000  0.000
   13  0.002  0.000  0.000  0.000  0.000  0.000  0.000  0.000  0.000  0.002
   14  0.000  0.000  0.000  0.000  0.000  0.000  0.000  0.000  0.000  0.000
   15  0.002  0.000  0.000  0.000  0.000  0.000  0.000  0.000  0.000  0.002
   16  0.000  0.000  0.000  0.000  0.000  0.000  0.000  0.000  0.000  0.000
   17  0.081  0.005  0.001  0.001  0.000  0.000  0.000  0.000  0.000  0.089
   18  0.081  0.006  0.000  0.001  0.000  0.000  0.000  0.000  0.000  0.088
   19  0.081  0.005  0.001  0.001  0.000  0.000  0.000  0.000  0.000  0.089
   20  0.080  0.006  0.000  0.001  0.000  0.000  0.000  0.000  0.000  0.088
   21  0.132  0.000  0.004  0.003  0.000  0.000  0.000  0.000  0.000  0.139
   22  0.132  0.000  0.004  0.003  0.000  0.000  0.000  0.000  0.000  0.140
tot    0.783  0.029  0.023  0.013  0.000  0.000  0.000  0.000  0.000  0.848
 
band     3 # energy  -19.03157462 # occ.  1.00000000
 
ion      s     py     pz     px    dxy    dyz    dz2    dxz  x2-y2    tot
    1  0.000  0.002  0.001  0.005  0.000  0.000  0.000  0.000  0.000  0.007
    2  0.000  0.003  0.000  0.005  0.000  0.000  0.000  0.000  0.000  0.007
    3  0.003  0.000  0.004  0.030  0.000  0.000  0.000  0.000  0.000  0.037
    4  0.003  0.000  0.004  0.030  0.000  0.000  0.000  0.000  0.000  0.037
    5  0.000  0.000  0.000  0.000  0.000  0.000  0.000  0.000  0.000  0.000
    6  0.000  0.000  0.000  0.000  0.000  0.000  0.000  0.000  0.000  0.000
    7  0.000  0.000  0.000  0.000  0.000  0.000  0.000  0.000  0.000  0.000
    8  0.000  0.000  0.000  0.000  0.000  0.000  0.000  0.000  0.000  0.000
    9  0.000  0.000  0.000  0.000  0.000  0.000  0.000  0.000  0.000  0.000
   10  0.000  0.000  0.000  0.000  0.000  0.000  0.000  0.000  0.000  0.000
   11  0.000  0.000  0.000  0.000  0.000  0.000  0.000  0.000  0.000  0.000
   12  0.000  0.000  0.000  0.000  0.000  0.000  0.000  0.000  0.000  0.000
   13  0.000  0.000  0.000  0.000  0.000  0.000  0.000  0.000  0.000  0.000
   14  0.000  0.000  0.000  0.000  0.000  0.000  0.000  0.000  0.000  0.000
   15  0.000  0.000  0.000  0.000  0.000  0.000  0.000  0.000  0.000  0.000
   16  0.000  0.000  0.000  0.000  0.000  0.000  0.000  0.000  0.000  0.000
   17  0.084  0.003  0.000  0.000  0.000  0.000  0.000  0.000  0.000  0.088
   18  0.077  0.003  0.000  0.000  0.000  0.000  0.000  0.000  0.000  0.081
   19  0.076  0.003  0.000  0.000  0.000  0.000  0.000  0.000  0.000  0.079
   20  0.071  0.002  0.000  0.000  0.000  0.000  0.000  0.000  0.000  0.074
   21  0.222  0.000  0.002  0.002  0.000  0.000  0.000  0.000  0.000  0.226
   22  0.221  0.000  0.002  0.002  0.000  0.000  0.000  0.000  0.000  0.225
tot    0.756  0.016  0.014  0.074  0.000  0.000  0.000  0.000  0.000  0.861
 
band     4 # energy  -18.99619671 # occ.  1.00000000
 
ion      s     py     pz     px    dxy    dyz    dz2    dxz  x2-y2    tot
    1  0.005  0.000  0.000  0.000  0.001  0.001  0.000  0.002  0.000  0.010
    2  0.005  0.000  0.000  0.000  0.000  0.000  0.001  0.003  0.001  0.009
    3  0.000  0.041  0.005  0.000  0.000  0.000  0.000  0.000  0.000  0.045
    4  0.000  0.040  0.005  0.000  0.000  0.000  0.000  0.000  0.000  0.045
    5  0.000  0.000  0.000  0.000  0.000  0.000  0.000  0.000  0.000  0.000
    6  0.000  0.000  0.000  0.000  0.000  0.000  0.000  0.000  0.000  0.000
    7  0.000  0.000  0.000  0.000  0.000  0.000  0.000  0.000  0.000  0.000
    8  0.000  0.000  0.000  0.000  0.000  0.000  0.000  0.000  0.000  0.000
    9  0.000  0.000  0.000  0.000  0.000  0.000  0.000  0.000  0.000  0.000
   10  0.000  0.000  0.000  0.000  0.000  0.000  0.000  0.000  0.000  0.000
   11  0.000  0.000  0.000  0.000  0.000  0.000  0.000  0.000  0.000  0.000
   12  0.000  0.000  0.000  0.000  0.000  0.000  0.000  0.000  0.000  0.000
   13  0.000  0.000  0.000  0.000  0.000  0.000  0.000  0.000  0.000  0.000
   14  0.000  0.000  0.000  0.000  0.000  0.000  0.000  0.000  0.000  0.000
   15  0.000  0.000  0.000  0.000  0.000  0.000  0.000  0.000  0.000  0.000
   16  0.000  0.000  0.000  0.000  0.000  0.000  0.000  0.000  0.000  0.000
   17  0.186  0.004  0.001  0.002  0.000  0.000  0.000  0.000  0.000  0.193
   18  0.170  0.005  0.000  0.001  0.000  0.000  0.000  0.000  0.000  0.177
   19  0.193  0.005  0.001  0.002  0.000  0.000  0.000  0.000  0.000  0.200
   20  0.178  0.005  0.000  0.001  0.000  0.000  0.000  0.000  0.000  0.185
   21  0.000  0.001  0.000  0.000  0.000  0.000  0.000  0.000  0.000  0.001
   22  0.001  0.001  0.000  0.000  0.000  0.000  0.000  0.000  0.000  0.001
tot    0.738  0.101  0.012  0.006  0.001  0.001  0.001  0.005  0.001  0.866
 
band     5 # energy  -18.92606397 # occ.  1.00000000
 
ion      s     py     pz     px    dxy    dyz    dz2    dxz  x2-y2    tot
    1  0.001  0.000  0.000  0.000  0.005  0.001  0.001  0.001  0.001  0.009
    2  0.000  0.000  0.000  0.000  0.002  0.001  0.001  0.005  0.001  0.010
    3  0.004  0.001  0.003  0.031  0.000  0.000  0.000  0.000  0.000  0.039
    4  0.004  0.001  0.003  0.031  0.000  0.000  0.000  0.000  0.000  0.039
    5  0.000  0.000  0.000  0.000  0.000  0.000  0.000  0.000  0.000  0.000
    6  0.000  0.000  0.000  0.000  0.000  0.000  0.000  0.000  0.000  0.000
    7  0.000  0.000  0.000  0.000  0.000  0.000  0.000  0.000  0.000  0.000
    8  0.000  0.000  0.000  0.000  0.000  0.000  0.000  0.000  0.000  0.000
    9  0.000  0.000  0.000  0.000  0.000  0.000  0.000  0.000  0.000  0.000
   10  0.000  0.000  0.000  0.000  0.000  0.000  0.000  0.000  0.000  0.000
   11  0.000  0.000  0.000  0.000  0.000  0.000  0.000  0.000  0.000  0.000
   12  0.000  0.000  0.000  0.000  0.000  0.000  0.000  0.000  0.000  0.000
   13  0.000  0.000  0.000  0.000  0.000  0.000  0.000  0.000  0.000  0.000
   14  0.000  0.000  0.000  0.000  0.000  0.000  0.000  0.000  0.000  0.000
   15  0.000  0.000  0.000  0.000  0.000  0.000  0.000  0.000  0.000  0.000
   16  0.000  0.000  0.000  0.000  0.000  0.000  0.000  0.000  0.000  0.000
   17  0.072  0.003  0.000  0.000  0.000  0.000  0.000  0.000  0.000  0.076
   18  0.088  0.003  0.001  0.000  0.000  0.000  0.000  0.000  0.000  0.092
   19  0.069  0.003  0.000  0.000  0.000  0.000  0.000  0.000  0.000  0.073
   20  0.084  0.003  0.001  0.000  0.000  0.000  0.000  0.000  0.000  0.088
   21  0.217  0.000  0.002  0.001  0.000  0.000  0.000  0.000  0.000  0.221
   22  0.218  0.000  0.002  0.001  0.000  0.000  0.000  0.000  0.000  0.222
tot    0.757  0.015  0.013  0.067  0.007  0.002  0.002  0.005  0.002  0.870
 
band     6 # energy  -18.84537560 # occ.  1.00000000
 
ion      s     py     pz     px    dxy    dyz    dz2    dxz  x2-y2    tot
    1  0.000  0.001  0.002  0.002  0.000  0.000  0.000  0.000  0.000  0.005
    2  0.000  0.000  0.003  0.002  0.000  0.000  0.000  0.000  0.000  0.005
    3  0.000  0.042  0.004  0.000  0.000  0.000  0.000  0.000  0.000  0.047
    4  0.000  0.042  0.005  0.000  0.000  0.000  0.000  0.000  0.000  0.047
    5  0.000  0.000  0.000  0.000  0.000  0.000  0.000  0.000  0.000  0.000
    6  0.000  0.000  0.000  0.000  0.000  0.000  0.000  0.000  0.000  0.000
    7  0.000  0.000  0.000  0.000  0.000  0.000  0.000  0.000  0.000  0.000
    8  0.000  0.000  0.000  0.000  0.000  0.000  0.000  0.000  0.000  0.000
    9  0.000  0.000  0.000  0.000  0.000  0.000  0.000  0.000  0.000  0.000
   10  0.000  0.000  0.000  0.000  0.000  0.000  0.000  0.000  0.000  0.000
   11  0.000  0.000  0.000  0.000  0.000  0.000  0.000  0.000  0.000  0.000
   12  0.000  0.000  0.000  0.000  0.000  0.000  0.000  0.000  0.000  0.000
   13  0.000  0.000  0.000  0.000  0.000  0.000  0.000  0.000  0.000  0.000
   14  0.000  0.000  0.000  0.000  0.000  0.000  0.000  0.000  0.000  0.000
   15  0.000  0.000  0.000  0.000  0.000  0.000  0.000  0.000  0.000  0.000
   16  0.000  0.000  0.000  0.000  0.000  0.000  0.000  0.000  0.000  0.000
   17  0.179  0.005  0.001  0.002  0.000  0.000  0.000  0.000  0.000  0.186
   18  0.186  0.005  0.000  0.002  0.000  0.000  0.000  0.000  0.000  0.194
   19  0.183  0.005  0.001  0.002  0.000  0.000  0.000  0.000  0.000  0.191
   20  0.189  0.006  0.000  0.002  0.000  0.000  0.000  0.000  0.000  0.197
   21  0.000  0.000  0.000  0.000  0.000  0.000  0.000  0.000  0.000  0.000
   22  0.000  0.000  0.000  0.000  0.000  0.000  0.000  0.000  0.000  0.000
tot    0.739  0.106  0.017  0.010  0.000  0.000  0.000  0.000  0.000  0.872
 
band     7 # energy  -15.19031256 # occ.  1.00000000
 
ion      s     py     pz     px    dxy    dyz    dz2    dxz  x2-y2    tot
    1  0.000  0.000  0.000  0.000  0.000  0.000  0.000  0.000  0.000  0.000
    2  0.000  0.000  0.000  0.000  0.000  0.000  0.000  0.000  0.000  0.000
    3  0.002  0.000  0.003  0.001  0.000  0.000  0.000  0.000  0.000  0.007
    4  0.002  0.000  0.003  0.001  0.000  0.000  0.000  0.000  0.000  0.007
    5  0.009  0.001  0.000  0.000  0.000  0.000  0.000  0.000  0.000  0.010
    6  0.018  0.001  0.000  0.001  0.000  0.000  0.000  0.000  0.000  0.020
    7  0.009  0.000  0.000  0.000  0.000  0.000  0.000  0.000  0.000  0.010
    8  0.018  0.001  0.000  0.001  0.000  0.000  0.000  0.000  0.000  0.020
    9  0.009  0.001  0.000  0.000  0.000  0.000  0.000  0.000  0.000  0.010
   10  0.018  0.001  0.000  0.001  0.000  0.000  0.000  0.000  0.000  0.020
   11  0.009  0.000  0.000  0.000  0.000  0.000  0.000  0.000  0.000  0.010
   12  0.018  0.001  0.000  0.001  0.000  0.000  0.000  0.000  0.000  0.020
   13  0.080  0.000  0.003  0.001  0.000  0.000  0.000  0.000  0.000  0.084
   14  0.165  0.000  0.001  0.003  0.000  0.000  0.000  0.000  0.000  0.168
   15  0.080  0.000  0.003  0.001  0.000  0.000  0.000  0.000  0.000  0.084
   16  0.165  0.000  0.001  0.003  0.000  0.000  0.000  0.000  0.000  0.168
   17  0.002  0.000  0.000  0.000  0.000  0.000  0.000  0.000  0.000  0.002
   18  0.002  0.000  0.000  0.000  0.000  0.000  0.000  0.000  0.000  0.002
   19  0.002  0.000  0.000  0.000  0.000  0.000  0.000  0.000  0.000  0.002
   20  0.002  0.000  0.000  0.000  0.000  0.000  0.000  0.000  0.000  0.002
   21  0.000  0.000  0.000  0.000  0.000  0.000  0.000  0.000  0.000  0.001
   22  0.000  0.000  0.000  0.000  0.000  0.000  0.000  0.000  0.000  0.001
tot    0.612  0.007  0.016  0.014  0.000  0.000  0.000  0.000  0.000  0.649
 
band     8 # energy  -13.57827963 # occ.  1.00000000
 
ion      s     py     pz     px    dxy    dyz    dz2    dxz  x2-y2    tot
    1  0.000  0.000  0.000  0.000  0.000  0.000  0.000  0.000  0.000  0.001
    2  0.000  0.000  0.000  0.000  0.000  0.000  0.000  0.000  0.000  0.001
    3  0.009  0.001  0.012  0.003  0.000  0.000  0.000  0.000  0.000  0.025
    4  0.009  0.001  0.012  0.003  0.000  0.000  0.000  0.000  0.000  0.025
    5  0.023  0.001  0.000  0.001  0.000  0.000  0.000  0.000  0.000  0.025
    6  0.006  0.000  0.000  0.000  0.000  0.000  0.000  0.000  0.000  0.006
    7  0.023  0.001  0.000  0.001  0.000  0.000  0.000  0.000  0.000  0.025
    8  0.006  0.000  0.000  0.000  0.000  0.000  0.000  0.000  0.000  0.006
    9  0.023  0.001  0.000  0.001  0.000  0.000  0.000  0.000  0.000  0.025
   10  0.006  0.000  0.000  0.000  0.000  0.000  0.000  0.000  0.000  0.006
   11  0.023  0.001  0.000  0.001  0.000  0.000  0.000  0.000  0.000  0.025
   12  0.006  0.000  0.000  0.000  0.000  0.000  0.000  0.000  0.000  0.006
   13  0.167  0.000  0.000  0.001  0.000  0.000  0.000  0.000  0.000  0.167
   14  0.045  0.002  0.014  0.001  0.000  0.000  0.000  0.000  0.000  0.062
   15  0.167  0.000  0.000  0.001  0.000  0.000  0.000  0.000  0.000  0.168
   16  0.045  0.002  0.014  0.001  0.000  0.000  0.000  0.000  0.000  0.062
   17  0.006  0.000  0.001  0.000  0.000  0.000  0.000  0.000  0.000  0.006
   18  0.006  0.000  0.001  0.000  0.000  0.000  0.000  0.000  0.000  0.006
   19  0.006  0.000  0.001  0.000  0.000  0.000  0.000  0.000  0.000  0.006
   20  0.006  0.000  0.001  0.000  0.000  0.000  0.000  0.000  0.000  0.006
   21  0.003  0.000  0.000  0.000  0.000  0.000  0.000  0.000  0.000  0.004
   22  0.003  0.000  0.000  0.000  0.000  0.000  0.000  0.000  0.000  0.004
tot    0.584  0.013  0.056  0.015  0.000  0.000  0.000  0.000  0.000  0.668
 
band     9 # energy  -11.46123056 # occ.  1.00000000
 
ion      s     py     pz     px    dxy    dyz    dz2    dxz  x2-y2    tot
    1  0.006  0.000  0.000  0.000  0.000  0.000  0.000  0.002  0.000  0.008
    2  0.006  0.000  0.000  0.000  0.001  0.000  0.000  0.002  0.000  0.008
    3  0.043  0.001  0.012  0.006  0.000  0.000  0.000  0.000  0.000  0.063
    4  0.043  0.001  0.012  0.006  0.000  0.000  0.000  0.000  0.000  0.063
    5  0.017  0.001  0.000  0.001  0.000  0.000  0.000  0.000  0.000  0.019
    6  0.010  0.001  0.000  0.000  0.000  0.000  0.000  0.000  0.000  0.011
    7  0.017  0.001  0.000  0.001  0.000  0.000  0.000  0.000  0.000  0.019
    8  0.010  0.000  0.000  0.000  0.000  0.000  0.000  0.000  0.000  0.011
    9  0.017  0.001  0.000  0.001  0.000  0.000  0.000  0.000  0.000  0.019
   10  0.010  0.001  0.000  0.000  0.000  0.000  0.000  0.000  0.000  0.011
   11  0.017  0.001  0.000  0.001  0.000  0.000  0.000  0.000  0.000  0.019
   12  0.010  0.000  0.000  0.000  0.000  0.000  0.000  0.000  0.000  0.011
   13  0.082  0.002  0.014  0.001  0.000  0.000  0.000  0.000  0.000  0.099
   14  0.062  0.002  0.014  0.000  0.000  0.000  0.000  0.000  0.000  0.077
   15  0.082  0.002  0.014  0.001  0.000  0.000  0.000  0.000  0.000  0.099
   16  0.062  0.002  0.014  0.000  0.000  0.000  0.000  0.000  0.000  0.077
   17  0.008  0.003  0.001  0.002  0.000  0.000  0.000  0.000  0.000  0.014
   18  0.008  0.001  0.004  0.002  0.000  0.000  0.000  0.000  0.000  0.014
   19  0.008  0.003  0.001  0.002  0.000  0.000  0.000  0.000  0.000  0.014
   20  0.008  0.001  0.004  0.002  0.000  0.000  0.000  0.000  0.000  0.014
   21  0.007  0.001  0.006  0.003  0.000  0.000  0.000  0.000  0.000  0.016
   22  0.007  0.001  0.006  0.003  0.000  0.000  0.000  0.000  0.000  0.016
tot    0.537  0.023  0.104  0.033  0.001  0.000  0.000  0.004  0.000  0.703
 
band    10 # energy   -9.38180495 # occ.  1.00000000
 
ion      s     py     pz     px    dxy    dyz    dz2    dxz  x2-y2    tot
    1  0.000  0.003  0.000  0.000  0.000  0.000  0.000  0.000  0.000  0.003
    2  0.000  0.001  0.002  0.000  0.000  0.000  0.000  0.000  0.000  0.003
    3  0.034  0.000  0.002  0.006  0.000  0.000  0.000  0.000  0.000  0.042
    4  0.034  0.000  0.002  0.006  0.000  0.000  0.000  0.000  0.000  0.042
    5  0.006  0.000  0.000  0.000  0.000  0.000  0.000  0.000  0.000  0.007
    6  0.040  0.002  0.000  0.001  0.000  0.000  0.000  0.000  0.000  0.044
    7  0.006  0.001  0.000  0.000  0.000  0.000  0.000  0.000  0.000  0.007
    8  0.040  0.002  0.000  0.001  0.000  0.000  0.000  0.000  0.000  0.044
    9  0.006  0.000  0.000  0.000  0.000  0.000  0.000  0.000  0.000  0.007
   10  0.040  0.002  0.000  0.001  0.000  0.000  0.000  0.000  0.000  0.044
   11  0.006  0.001  0.000  0.000  0.000  0.000  0.000  0.000  0.000  0.007
   12  0.040  0.002  0.000  0.001  0.000  0.000  0.000  0.000  0.000  0.044
   13  0.009  0.002  0.017  0.011  0.000  0.000  0.000  0.000  0.000  0.040
   14  0.113  0.001  0.007  0.016  0.000  0.000  0.000  0.000  0.000  0.137
   15  0.009  0.002  0.017  0.011  0.000  0.000  0.000  0.000  0.000  0.040
   16  0.113  0.001  0.007  0.016  0.000  0.000  0.000  0.000  0.000  0.137
   17  0.005  0.002  0.000  0.003  0.000  0.000  0.000  0.000  0.000  0.011
   18  0.005  0.001  0.001  0.003  0.000  0.000  0.000  0.000  0.000  0.011
   19  0.005  0.002  0.000  0.003  0.000  0.000  0.000  0.000  0.000  0.011
   20  0.005  0.001  0.001  0.003  0.000  0.000  0.000  0.000  0.000  0.011
   21  0.010  0.001  0.008  0.008  0.000  0.000  0.000  0.000  0.000  0.026
   22  0.010  0.001  0.008  0.008  0.000  0.000  0.000  0.000  0.000  0.026
tot    0.541  0.029  0.075  0.098  0.000  0.000  0.000  0.000  0.000  0.744
 
band    11 # energy   -8.94242523 # occ.  1.00000000
 
ion      s     py     pz     px    dxy    dyz    dz2    dxz  x2-y2    tot
    1  0.026  0.000  0.000  0.000  0.000  0.000  0.000  0.010  0.002  0.039
    2  0.026  0.000  0.000  0.000  0.006  0.001  0.000  0.005  0.001  0.039
    3  0.075  0.001  0.006  0.000  0.000  0.000  0.000  0.000  0.000  0.082
    4  0.075  0.001  0.006  0.000  0.000  0.000  0.000  0.000  0.000  0.082
    5  0.015  0.001  0.000  0.000  0.000  0.000  0.000  0.000  0.000  0.016
    6  0.003  0.000  0.000  0.000  0.000  0.000  0.000  0.000  0.000  0.003
    7  0.015  0.001  0.000  0.000  0.000  0.000  0.000  0.000  0.000  0.016
    8  0.003  0.000  0.000  0.000  0.000  0.000  0.000  0.000  0.000  0.003
    9  0.015  0.001  0.000  0.000  0.000  0.000  0.000  0.000  0.000  0.016
   10  0.003  0.000  0.000  0.000  0.000  0.000  0.000  0.000  0.000  0.003
   11  0.015  0.001  0.000  0.000  0.000  0.000  0.000  0.000  0.000  0.016
   12  0.003  0.000  0.000  0.000  0.000  0.000  0.000  0.000  0.000  0.003
   13  0.034  0.000  0.001  0.008  0.000  0.000  0.000  0.000  0.000  0.043
   14  0.009  0.000  0.004  0.001  0.000  0.000  0.000  0.000  0.000  0.014
   15  0.034  0.000  0.001  0.008  0.000  0.000  0.000  0.000  0.000  0.043
   16  0.009  0.000  0.004  0.001  0.000  0.000  0.000  0.000  0.000  0.014
   17  0.010  0.019  0.000  0.017  0.000  0.000  0.000  0.000  0.000  0.046
   18  0.010  0.013  0.006  0.016  0.000  0.000  0.000  0.000  0.000  0.046
   19  0.010  0.019  0.000  0.017  0.000  0.000  0.000  0.000  0.000  0.046
   20  0.010  0.013  0.006  0.016  0.000  0.000  0.000  0.000  0.000  0.046
   21  0.008  0.003  0.022  0.054  0.000  0.000  0.000  0.000  0.000  0.087
   22  0.008  0.003  0.022  0.054  0.000  0.000  0.000  0.000  0.000  0.086
tot    0.418  0.075  0.078  0.195  0.006  0.001  0.000  0.015  0.003  0.792
 
band    12 # energy   -8.37824924 # occ.  1.00000000
 
ion      s     py     pz     px    dxy    dyz    dz2    dxz  x2-y2    tot
    1  0.000  0.010  0.002  0.001  0.000  0.000  0.000  0.000  0.000  0.013
    2  0.000  0.003  0.010  0.001  0.000  0.000  0.000  0.000  0.000  0.013
    3  0.083  0.000  0.000  0.000  0.000  0.000  0.000  0.000  0.000  0.084
    4  0.083  0.000  0.000  0.000  0.000  0.000  0.000  0.000  0.000  0.084
    5  0.014  0.001  0.000  0.000  0.000  0.000  0.000  0.000  0.000  0.015
    6  0.011  0.001  0.000  0.000  0.000  0.000  0.000  0.000  0.000  0.012
    7  0.014  0.001  0.000  0.000  0.000  0.000  0.000  0.000  0.000  0.015
    8  0.011  0.001  0.000  0.000  0.000  0.000  0.000  0.000  0.000  0.012
    9  0.014  0.001  0.000  0.000  0.000  0.000  0.000  0.000  0.000  0.015
   10  0.011  0.001  0.000  0.000  0.000  0.000  0.000  0.000  0.000  0.012
   11  0.014  0.001  0.000  0.000  0.000  0.000  0.000  0.000  0.000  0.015
   12  0.011  0.001  0.000  0.000  0.000  0.000  0.000  0.000  0.000  0.012
   13  0.019  0.001  0.007  0.015  0.000  0.000  0.000  0.000  0.000  0.041
   14  0.011  0.000  0.000  0.020  0.000  0.000  0.000  0.000  0.000  0.031
   15  0.019  0.001  0.007  0.015  0.000  0.000  0.000  0.000  0.000  0.041
   16  0.011  0.000  0.000  0.020  0.000  0.000  0.000  0.000  0.000  0.031
   17  0.016  0.016  0.000  0.016  0.000  0.000  0.000  0.000  0.000  0.048
   18  0.016  0.010  0.006  0.015  0.000  0.000  0.000  0.000  0.000  0.047
   19  0.016  0.016  0.000  0.016  0.000  0.000  0.000  0.000  0.000  0.048
   20  0.016  0.010  0.006  0.015  0.000  0.000  0.000  0.000  0.000  0.047
   21  0.015  0.001  0.011  0.042  0.000  0.000  0.000  0.000  0.000  0.070
   22  0.015  0.001  0.011  0.042  0.000  0.000  0.000  0.000  0.000  0.070
tot    0.419  0.075  0.061  0.219  0.000  0.000  0.000  0.000  0.000  0.774
 
band    13 # energy   -7.10165251 # occ.  1.00000000
 
ion      s     py     pz     px    dxy    dyz    dz2    dxz  x2-y2    tot
    1  0.000  0.000  0.001  0.002  0.000  0.000  0.000  0.000  0.000  0.002
    2  0.000  0.000  0.000  0.002  0.000  0.000  0.000  0.000  0.000  0.002
    3  0.000  0.006  0.001  0.000  0.000  0.000  0.000  0.000  0.000  0.007
    4  0.000  0.006  0.001  0.000  0.000  0.000  0.000  0.000  0.000  0.007
    5  0.023  0.000  0.000  0.001  0.000  0.000  0.000  0.000  0.000  0.025
    6  0.037  0.000  0.000  0.001  0.000  0.000  0.000  0.000  0.000  0.039
    7  0.023  0.000  0.000  0.001  0.000  0.000  0.000  0.000  0.000  0.025
    8  0.037  0.000  0.000  0.001  0.000  0.000  0.000  0.000  0.000  0.039
    9  0.023  0.000  0.000  0.001  0.000  0.000  0.000  0.000  0.000  0.025
   10  0.037  0.000  0.000  0.001  0.000  0.000  0.000  0.000  0.000  0.039
   11  0.023  0.000  0.000  0.001  0.000  0.000  0.000  0.000  0.000  0.025
   12  0.037  0.000  0.000  0.001  0.000  0.000  0.000  0.000  0.000  0.039
   13  0.000  0.049  0.005  0.000  0.000  0.000  0.000  0.000  0.000  0.055
   14  0.000  0.080  0.009  0.000  0.000  0.000  0.000  0.000  0.000  0.088
   15  0.000  0.049  0.005  0.000  0.000  0.000  0.000  0.000  0.000  0.055
   16  0.000  0.080  0.009  0.000  0.000  0.000  0.000  0.000  0.000  0.088
   17  0.002  0.003  0.002  0.003  0.000  0.000  0.000  0.000  0.000  0.009
   18  0.002  0.000  0.004  0.003  0.000  0.000  0.000  0.000  0.000  0.009
   19  0.002  0.003  0.002  0.003  0.000  0.000  0.000  0.000  0.000  0.009
   20  0.002  0.000  0.004  0.003  0.000  0.000  0.000  0.000  0.000  0.009
   21  0.000  0.003  0.000  0.000  0.000  0.000  0.000  0.000  0.000  0.003
   22  0.000  0.003  0.000  0.000  0.000  0.000  0.000  0.000  0.000  0.003
tot    0.248  0.284  0.043  0.024  0.000  0.000  0.000  0.000  0.000  0.599
 
band    14 # energy   -6.89524287 # occ.  1.00000000
 
ion      s     py     pz     px    dxy    dyz    dz2    dxz  x2-y2    tot
    1  0.000  0.000  0.000  0.000  0.028  0.012  0.011  0.011  0.045  0.107
    2  0.000  0.000  0.000  0.000  0.006  0.023  0.005  0.032  0.036  0.102
    3  0.003  0.003  0.027  0.030  0.000  0.000  0.000  0.000  0.000  0.062
    4  0.003  0.003  0.027  0.029  0.000  0.000  0.000  0.000  0.000  0.062
    5  0.005  0.000  0.000  0.000  0.000  0.000  0.000  0.000  0.000  0.005
    6  0.001  0.000  0.000  0.000  0.000  0.000  0.000  0.000  0.000  0.001
    7  0.005  0.000  0.000  0.000  0.000  0.000  0.000  0.000  0.000  0.006
    8  0.001  0.000  0.000  0.000  0.000  0.000  0.000  0.000  0.000  0.001
    9  0.005  0.000  0.000  0.000  0.000  0.000  0.000  0.000  0.000  0.005
   10  0.001  0.000  0.000  0.000  0.000  0.000  0.000  0.000  0.000  0.001
   11  0.005  0.000  0.000  0.000  0.000  0.000  0.000  0.000  0.000  0.006
   12  0.001  0.000  0.000  0.000  0.000  0.000  0.000  0.000  0.000  0.001
   13  0.002  0.000  0.001  0.013  0.000  0.000  0.000  0.000  0.000  0.017
   14  0.000  0.000  0.003  0.002  0.000  0.000  0.000  0.000  0.000  0.005
   15  0.002  0.000  0.001  0.013  0.000  0.000  0.000  0.000  0.000  0.017
   16  0.000  0.000  0.003  0.002  0.000  0.000  0.000  0.000  0.000  0.005
   17  0.002  0.031  0.008  0.002  0.000  0.000  0.000  0.000  0.000  0.043
   18  0.002  0.007  0.030  0.001  0.000  0.000  0.000  0.000  0.000  0.040
   19  0.002  0.031  0.008  0.002  0.000  0.000  0.000  0.000  0.000  0.043
   20  0.002  0.007  0.030  0.001  0.000  0.000  0.000  0.000  0.000  0.040
   21  0.004  0.002  0.018  0.090  0.000  0.000  0.000  0.000  0.000  0.114
   22  0.004  0.002  0.018  0.090  0.000  0.000  0.000  0.000  0.000  0.114
tot    0.049  0.090  0.176  0.275  0.034  0.035  0.016  0.042  0.081  0.797
 
band    15 # energy   -6.80244134 # occ.  1.00000000
 
ion      s     py     pz     px    dxy    dyz    dz2    dxz  x2-y2    tot
    1  0.005  0.000  0.000  0.000  0.045  0.012  0.014  0.040  0.006  0.123
    2  0.005  0.000  0.000  0.000  0.003  0.011  0.016  0.085  0.007  0.127
    3  0.000  0.050  0.005  0.000  0.000  0.000  0.000  0.000  0.000  0.055
    4  0.000  0.050  0.005  0.000  0.000  0.000  0.000  0.000  0.000  0.055
    5  0.006  0.000  0.000  0.000  0.000  0.000  0.000  0.000  0.000  0.007
    6  0.001  0.000  0.000  0.000  0.000  0.000  0.000  0.000  0.000  0.001
    7  0.006  0.000  0.000  0.000  0.000  0.000  0.000  0.000  0.000  0.007
    8  0.001  0.000  0.000  0.000  0.000  0.000  0.000  0.000  0.000  0.001
    9  0.006  0.000  0.000  0.000  0.000  0.000  0.000  0.000  0.000  0.007
   10  0.001  0.000  0.000  0.000  0.000  0.000  0.000  0.000  0.000  0.001
   11  0.006  0.000  0.000  0.000  0.000  0.000  0.000  0.000  0.000  0.007
   12  0.001  0.000  0.000  0.000  0.000  0.000  0.000  0.000  0.000  0.001
   13  0.000  0.014  0.002  0.000  0.000  0.000  0.000  0.000  0.000  0.016
   14  0.000  0.002  0.000  0.000  0.000  0.000  0.000  0.000  0.000  0.002
   15  0.000  0.014  0.002  0.000  0.000  0.000  0.000  0.000  0.000  0.016
   16  0.000  0.002  0.000  0.000  0.000  0.000  0.000  0.000  0.000  0.002
   17  0.005  0.030  0.005  0.046  0.000  0.000  0.000  0.000  0.000  0.086
   18  0.005  0.010  0.027  0.045  0.000  0.000  0.000  0.000  0.000  0.088
   19  0.005  0.030  0.005  0.046  0.000  0.000  0.000  0.000  0.000  0.085
   20  0.005  0.010  0.027  0.045  0.000  0.000  0.000  0.000  0.000  0.088
   21  0.000  0.021  0.003  0.000  0.000  0.000  0.000  0.000  0.000  0.024
   22  0.000  0.021  0.003  0.000  0.000  0.000  0.000  0.000  0.000  0.024
tot    0.061  0.254  0.083  0.184  0.047  0.023  0.030  0.126  0.013  0.821
 
band    16 # energy   -6.45449688 # occ.  1.00000000
 
ion      s     py     pz     px    dxy    dyz    dz2    dxz  x2-y2    tot
    1  0.000  0.006  0.009  0.006  0.000  0.000  0.000  0.000  0.000  0.022
    2  0.000  0.014  0.001  0.006  0.000  0.000  0.000  0.000  0.000  0.021
    3  0.003  0.002  0.019  0.056  0.000  0.000  0.000  0.000  0.000  0.080
    4  0.003  0.002  0.019  0.056  0.000  0.000  0.000  0.000  0.000  0.080
    5  0.001  0.000  0.000  0.000  0.000  0.000  0.000  0.000  0.000  0.001
    6  0.001  0.000  0.000  0.000  0.000  0.000  0.000  0.000  0.000  0.001
    7  0.001  0.000  0.000  0.000  0.000  0.000  0.000  0.000  0.000  0.001
    8  0.001  0.000  0.000  0.000  0.000  0.000  0.000  0.000  0.000  0.001
    9  0.001  0.000  0.000  0.000  0.000  0.000  0.000  0.000  0.000  0.001
   10  0.001  0.000  0.000  0.000  0.000  0.000  0.000  0.000  0.000  0.001
   11  0.001  0.000  0.000  0.000  0.000  0.000  0.000  0.000  0.000  0.001
   12  0.001  0.000  0.000  0.000  0.000  0.000  0.000  0.000  0.000  0.001
   13  0.000  0.000  0.001  0.003  0.000  0.000  0.000  0.000  0.000  0.004
   14  0.002  0.000  0.000  0.001  0.000  0.000  0.000  0.000  0.000  0.003
   15  0.000  0.000  0.001  0.003  0.000  0.000  0.000  0.000  0.000  0.004
   16  0.002  0.000  0.000  0.001  0.000  0.000  0.000  0.000  0.000  0.003
   17  0.006  0.053  0.001  0.001  0.000  0.000  0.000  0.000  0.000  0.061
   18  0.006  0.028  0.026  0.001  0.000  0.000  0.000  0.000  0.000  0.060
   19  0.006  0.053  0.001  0.001  0.000  0.000  0.000  0.000  0.000  0.061