       N       E                     dE             d eps       ncg     rms          rms(c)
DAV:   1    -0.417972748287E+03   -0.41797E+03   -0.54501E-08   664   0.153E-03    0.101E-03
RMM:   2    -0.417972748277E+03    0.10343E-07   -0.35252E-08   273   0.662E-04
   1 F= -.42369298E+03 E0= -.42369298E+03  d E =-.405228E-13
