 vasp.5.4.4.18Apr17-6-g9f103f2a35 (build Mar 06 2019 16:23:31) complex          
  
 executed on             LinuxIFC date 2019.12.15  13:37:42
 running on   48 total cores
 distrk:  each k-point on   48 cores,    1 groups
 distr:  one band on NCORES_PER_BAND=  24 cores,    2 groups


--------------------------------------------------------------------------------------------------------


 INCAR:
 POTCAR:    PAW_PBE Cd 06Sep2000                  
 POTCAR:    PAW_PBE H 15Jun2001                   
 POTCAR:    PAW_PBE C 08Apr2002                   
 POTCAR:    PAW_PBE N 08Apr2002                   

 ----------------------------------------------------------------------------- 
|                                                                             |
|           W    W    AA    RRRRR   N    N  II  N    N   GGGG   !!!           |
|           W    W   A  A   R    R  NN   N  II  NN   N  G    G  !!!           |
|           W    W  A    A  R    R  N N  N  II  N N  N  G       !!!           |
|           W WW W  AAAAAA  RRRRR   N  N N  II  N  N N  G  GGG   !            |
|           WW  WW  A    A  R   R   N   NN  II  N   NN  G    G                |
|           W    W  A    A  R    R  N    N  II  N    N   GGGG   !!!           |
|                                                                             |
|      For optimal performance we recommend to set                            |
|        NCORE= 4 - approx SQRT( number of cores)                             |
|      NCORE specifies how many cores store one orbital (NPAR=cpu/NCORE).     |
|      This setting can  greatly improve the performance of VASP for DFT.     |
|      The default,   NCORE=1            might be grossly inefficient         |
|      on modern multi-core architectures or massively parallel machines.     |
|      Do your own testing !!!!                                               |
|      Unfortunately you need to use the default for GW and RPA calculations. |
|      (for HF NCORE is supported but not extensively tested yet)             |
|                                                                             |
 ----------------------------------------------------------------------------- 

 POTCAR:    PAW_PBE Cd 06Sep2000                  
   VRHFIN =Cd : s2 d10                                                          
   LEXCH  = PE                                                                  
   EATOM  =  1293.1815 eV,   95.0462 Ry                                         
                                                                                
   TITEL  = PAW_PBE Cd 06Sep2000                                                
   LULTRA =        F    use ultrasoft PP ?                                      
   IUNSCR =        1    unscreen: 0-lin 1-nonlin 2-no                           
   RPACOR =    2.000    partial core radius                                     
   POMASS =  112.411; ZVAL   =   12.000    mass and valenz                      
   RCORE  =    2.300    outmost cutoff radius                                   
   RWIGS  =    2.980; RWIGS  =    1.577    wigner-seitz radius (au A)           
   ENMAX  =  274.336; ENMIN  =  205.752 eV                                      
   RCLOC  =    2.054    cutoff for local pot                                    
   LCOR   =        T    correct aug charges                                     
   LPAW   =        T    paw PP                                                  
   EAUG   =  456.106                                                            
   DEXC   =    0.000                                                            
   RMAX   =    2.358    core radius for proj-oper                               
   RAUG   =    1.300    factor for augmentation sphere                          
   RDEP   =    2.450    radius for radial grids                                 
   RDEPT  =    1.955    core radius for aug-charge                              
                                                                                
   Atomic configuration                                                         
   12 entries                                                                   
     n  l   j            E        occ.                                          
     1  0  0.50    -26519.7817   2.0000                                         
     2  0  0.50     -3936.9612   2.0000                                         
     2  1  1.50     -3532.2230   6.0000                                         
     3  0  0.50      -733.7908   2.0000                                         
     3  1  1.50      -601.0792   6.0000                                         
     3  2  2.50      -393.5307  10.0000                                         
     4  0  0.50      -105.8977   2.0000                                         
     4  1  1.50       -66.9488   6.0000                                         
     4  2  2.50       -11.7331  10.0000                                         
     5  0  0.50        -5.6592   2.0000                                         
     5  1  0.50        -1.3606   0.0000                                         
     4  3  2.50        -1.3606   0.0000                                         
   Description                                                                  
     l       E           TYP  RCUT    TYP  RCUT                                 
     2    -11.7331479     23  2.300                                             
     2    -13.0937305     23  2.300                                             
     0     -5.6591502     23  2.300                                             
     0     -1.5561433     23  2.300                                             
     1     -2.7211652     23  2.300                                             
     1      8.3548275     23  2.300                                             
  local pseudopotential read in
  partial core-charges read in
  partial kinetic energy density read in
  atomic valenz-charges read in
  non local Contribution for L=           2  read in
    real space projection operators read in
  non local Contribution for L=           2  read in
    real space projection operators read in
  non local Contribution for L=           0  read in
    real space projection operators read in
  non local Contribution for L=           0  read in
    real space projection operators read in
  non local Contribution for L=           1  read in
    real space projection operators read in
  non local Contribution for L=           1  read in
    real space projection operators read in
    PAW grid and wavefunctions read in
 
   number of l-projection  operators is LMAX  =           6
   number of lm-projection operators is LMMAX =          18
 
 POTCAR:    PAW_PBE H 15Jun2001                   
   VRHFIN =H: ultrasoft test                                                    
   LEXCH  = PE                                                                  
   EATOM  =    12.4884 eV,    0.9179 Ry                                         
                                                                                
   TITEL  = PAW_PBE H 15Jun2001                                                 
   LULTRA =        F    use ultrasoft PP ?                                      
   IUNSCR =        0    unscreen: 0-lin 1-nonlin 2-no                           
   RPACOR =    0.000    partial core radius                                     
   POMASS =    1.000; ZVAL   =    1.000    mass and valenz                      
   RCORE  =    1.100    outmost cutoff radius                                   
   RWIGS  =    0.700; RWIGS  =    0.370    wigner-seitz radius (au A)           
   ENMAX  =  250.000; ENMIN  =  200.000 eV                                      
   RCLOC  =    0.701    cutoff for local pot                                    
   LCOR   =        T    correct aug charges                                     
   LPAW   =        T    paw PP                                                  
   EAUG   =  400.000                                                            
   RMAX   =    1.123    core radius for proj-oper                               
   RAUG   =    1.200    factor for augmentation sphere                          
   RDEP   =    1.112    radius for radial grids                                 
   RDEPT  =    0.926    core radius for aug-charge                              
                                                                                
   Atomic configuration                                                         
    2 entries                                                                   
     n  l   j            E        occ.                                          
     1  0  0.50        -6.4927   1.0000                                         
     2  1  0.50        -3.4015   0.0000                                         
   Description                                                                  
     l       E           TYP  RCUT    TYP  RCUT                                 
     0     -6.4927494     23  1.100                                             
     0      6.8029130     23  1.100                                             
     1     -4.0817478     23  1.100                                             
  local pseudopotential read in
  atomic valenz-charges read in
  non local Contribution for L=           0  read in
    real space projection operators read in
  non local Contribution for L=           0  read in
    real space projection operators read in
  non local Contribution for L=           1  read in
    real space projection operators read in
    PAW grid and wavefunctions read in
 
   number of l-projection  operators is LMAX  =           3
   number of lm-projection operators is LMMAX =           5
 
 POTCAR:    PAW_PBE C 08Apr2002                   
   VRHFIN =C: s2p2                                                              
   LEXCH  = PE                                                                  
   EATOM  =   147.1560 eV,   10.8157 Ry                                         
                                                                                
   TITEL  = PAW_PBE C 08Apr2002                                                 
   LULTRA =        F    use ultrasoft PP ?                                      
   IUNSCR =        1    unscreen: 0-lin 1-nonlin 2-no                           
   RPACOR =    1.200    partial core radius                                     
   POMASS =   12.011; ZVAL   =    4.000    mass and valenz                      
   RCORE  =    1.500    outmost cutoff radius                                   
   RWIGS  =    1.630; RWIGS  =    0.863    wigner-seitz radius (au A)           
   ENMAX  =  400.000; ENMIN  =  300.000 eV                                      
   ICORE  =        2    local potential                                         
   LCOR   =        T    correct aug charges                                     
   LPAW   =        T    paw PP                                                  
   EAUG   =  644.873                                                            
   DEXC   =    0.000                                                            
   RMAX   =    1.529    core radius for proj-oper                               
   RAUG   =    1.300    factor for augmentation sphere                          
   RDEP   =    1.501    radius for radial grids                                 
   RDEPT  =    1.300    core radius for aug-charge                              
                                                                                
   Atomic configuration                                                         
    4 entries                                                                   
     n  l   j            E        occ.                                          
     1  0  0.50      -273.3789   2.0000                                         
     2  0  0.50       -13.7508   2.0000                                         
     2  1  0.50        -5.2854   2.0000                                         
     3  2  1.50        -5.4423   0.0000                                         
   Description                                                                  
     l       E           TYP  RCUT    TYP  RCUT                                 
     0    -13.7508458     23  1.200                                             
     0     -8.2022199     23  1.200                                             
     1     -5.2854383     23  1.500                                             
     1     34.0145650     23  1.500                                             
     2     -5.4423304      7  1.500                                             
  local pseudopotential read in
  partial core-charges read in
  partial kinetic energy density read in
  atomic valenz-charges read in
  non local Contribution for L=           0  read in
    real space projection operators read in
  non local Contribution for L=           0  read in
    real space projection operators read in
  non local Contribution for L=           1  read in
    real space projection operators read in
  non local Contribution for L=           1  read in
    real space projection operators read in
    PAW grid and wavefunctions read in
 
   number of l-projection  operators is LMAX  =           4
   number of lm-projection operators is LMMAX =           8
 
 POTCAR:    PAW_PBE N 08Apr2002                   
   VRHFIN =N: s2p3                                                              
   LEXCH  = PE                                                                  
   EATOM  =   264.5486 eV,   19.4438 Ry                                         
                                                                                
   TITEL  = PAW_PBE N 08Apr2002                                                 
   LULTRA =        F    use ultrasoft PP ?                                      
   IUNSCR =        1    unscreen: 0-lin 1-nonlin 2-no                           
   RPACOR =    1.200    partial core radius                                     
   POMASS =   14.001; ZVAL   =    5.000    mass and valenz                      
   RCORE  =    1.500    outmost cutoff radius                                   
   RWIGS  =    1.400; RWIGS  =    0.741    wigner-seitz radius (au A)           
   ENMAX  =  400.000; ENMIN  =  300.000 eV                                      
   ICORE  =        2    local potential                                         
   LCOR   =        T    correct aug charges                                     
   LPAW   =        T    paw PP                                                  
   EAUG   =  627.112                                                            
   DEXC   =    0.000                                                            
   RMAX   =    1.529    core radius for proj-oper                               
   RAUG   =    1.300    factor for augmentation sphere                          
   RDEP   =    1.514    radius for radial grids                                 
   RDEPT  =    1.338    core radius for aug-charge                              
                                                                                
   Atomic configuration                                                         
    4 entries                                                                   
     n  l   j            E        occ.                                          
     1  0  0.50      -384.7179   2.0000                                         
     2  0  0.50       -18.5828   2.0000                                         
     2  1  0.50        -7.0898   3.0000                                         
     3  2  1.50        -6.8029   0.0000                                         
   Description                                                                  
     l       E           TYP  RCUT    TYP  RCUT                                 
     0    -18.5828119     23  1.200                                             
     0    -13.5018863     23  1.200                                             
     1     -7.0897853     23  1.500                                             
     1      9.5240782     23  1.500                                             
     2     -6.8029130      7  1.500                                             
  local pseudopotential read in
  partial core-charges read in
  partial kinetic energy density read in
  atomic valenz-charges read in
  non local Contribution for L=           0  read in
    real space projection operators read in
  non local Contribution for L=           0  read in
    real space projection operators read in
  non local Contribution for L=           1  read in
    real space projection operators read in
  non local Contribution for L=           1  read in
    real space projection operators read in
    PAW grid and wavefunctions read in
 
   number of l-projection  operators is LMAX  =           4
   number of lm-projection operators is LMMAX =           8
 

 ----------------------------------------------------------------------------- 
|                                                                             |
|  ADVICE TO THIS USER RUNNING 'VASP/VAMP'   (HEAR YOUR MASTER'S VOICE ...):  |
|                                                                             |
|      You have a (more or less) 'large supercell' and for larger cells       |
|      it might be more efficient to use real space projection opertators     |
|      So try LREAL= Auto  in the INCAR   file.                               |
|      Mind:          For very  accurate calculation you might also keep the  |
|      reciprocal projection scheme          (i.e. LREAL=.FALSE.)             |
|                                                                             |
 ----------------------------------------------------------------------------- 

  PAW_PBE Cd 06Sep2000                  :
 energy of atom  1       EATOM=-1293.1815
 kinetic energy error for atom=    0.0062 (will be added to EATOM!!)
  PAW_PBE H 15Jun2001                   :
 energy of atom  2       EATOM=  -12.4884
 kinetic energy error for atom=    0.0014 (will be added to EATOM!!)
  PAW_PBE C 08Apr2002                   :
 energy of atom  3       EATOM= -147.1560
 kinetic energy error for atom=    0.0071 (will be added to EATOM!!)
  PAW_PBE N 08Apr2002                   :
 energy of atom  4       EATOM= -264.5486
 kinetic energy error for atom=    0.0125 (will be added to EATOM!!)
 
 
 POSCAR: Cd  H  C  N                             
  positions in cartesian coordinates
  No initial velocities read in
 exchange correlation table for  LEXCH =        8
   RHO(1)=    0.500       N(1)  =     2000
   RHO(2)=  100.500       N(2)  =     4000

 VTST: version 3.2, (02/03/18)

 CHAIN: initializing optimizer
 
 OPT: Using VASP Dynamics algorithm
 CHAIN: Read ICHAIN            0
 
 POSCAR: Cd  H  C  N                             
  positions in cartesian coordinates
  No initial velocities read in
 


--------------------------------------------------------------------------------------------------------


 ion  position               nearest neighbor table
   1  0.207  0.874  0.459-  49 2.28  55 2.32  48 2.43  56 2.47  43 2.48  45 2.57  60 2.61   2 3.76

   2  0.793  0.126  0.541-  50 2.28  56 2.32  47 2.43  55 2.47  44 2.48  46 2.57  59 2.61   1 3.76

   3  0.705  0.960  0.870-  19 1.09
   4  0.295  0.040  0.130-  20 1.09
   5  0.860  0.222  0.120-  23 1.09
   6  0.140  0.778  0.880-  24 1.09
   7  0.983  0.413  0.898-  25 1.09
   8  0.017  0.587  0.102-  26 1.09
   9  0.497  0.780  0.652-  31 1.09
  10  0.503  0.220  0.348-  32 1.09
  11  0.250  0.268  0.766-  33 1.09
  12  0.750  0.732  0.234-  34 1.09
  13  0.613  0.561  0.817-  37 1.09
  14  0.387  0.439  0.183-  38 1.09
  15  0.710  0.992  0.107-  39 1.09
  16  0.290  0.008  0.893-  40 1.09
  17  0.486  0.296  0.875-  41 1.09
  18  0.514  0.704  0.125-  42 1.09
  19  0.769  0.057  0.881-   3 1.09  47 1.34  39 1.39
  20  0.231  0.943  0.119-   4 1.09  48 1.34  40 1.39
  21  0.973  0.395  0.628-  46 1.34  29 1.42  35 1.49
  22  0.027  0.605  0.372-  45 1.34  30 1.42  36 1.49
  23  0.853  0.203  0.020-   5 1.09  39 1.39  25 1.39
  24  0.147  0.797  0.980-   6 1.09  40 1.39  26 1.39
  25  0.926  0.309  0.895-   7 1.09  23 1.39  35 1.40
  26  0.074  0.691  0.105-   8 1.09  24 1.39  36 1.40
  27  0.244  0.510  0.657-  43 1.36  33 1.40  29 1.49
  28  0.756  0.490  0.343-  44 1.36  34 1.40  30 1.49
  29  0.109  0.500  0.584-  45 1.34  21 1.42  27 1.49
  30  0.891  0.500  0.416-  46 1.34  22 1.42  28 1.49
  31  0.443  0.665  0.681-   9 1.09  43 1.34  37 1.40
  32  0.557  0.335  0.319-  10 1.09  44 1.34  38 1.40
  33  0.306  0.381  0.746-  11 1.09  41 1.39  27 1.40
  34  0.694  0.619  0.254-  12 1.09  42 1.39  28 1.40
  35  0.917  0.282  0.766-  47 1.35  25 1.40  21 1.49
  36  0.083  0.718  0.234-  48 1.35  26 1.40  22 1.49
  37  0.508  0.542  0.774-  13 1.09  41 1.39  31 1.40
  38  0.492  0.458  0.226-  14 1.09  42 1.39  32 1.40
  39  0.773  0.075  0.013-  15 1.09  23 1.39  19 1.39
  40  0.227  0.925  0.987-  16 1.09  24 1.39  20 1.39
  41  0.438  0.397  0.806-  17 1.09  37 1.39  33 1.39
  42  0.562  0.603  0.194-  18 1.09  38 1.39  34 1.39
  43  0.314  0.651  0.625-  31 1.34  27 1.36   1 2.48
  44  0.686  0.349  0.375-  32 1.34  28 1.36   2 2.48
  45  0.127  0.601  0.459-  29 1.34  22 1.34   1 2.57
  46  0.873  0.399  0.541-  30 1.34  21 1.34   2 2.57
  47  0.839  0.158  0.761-  19 1.34  35 1.35   2 2.43
  48  0.161  0.842  0.239-  20 1.34  36 1.35   1 2.43
  49  0.474  0.944  0.316-  51 1.19   1 2.28
  50  0.526  0.056  0.684-  52 1.19   2 2.28
  51  0.601  0.948  0.356-  59 1.18  49 1.19
  52  0.399  0.052  0.644-  60 1.18  50 1.19
  53  0.858  0.680  0.834-  57 1.17
  54  0.142  0.320  0.166-  58 1.17
  55  0.932  0.864  0.615-  57 1.20   1 2.32   2 2.47
  56  0.068  0.136  0.385-  58 1.20   2 2.32   1 2.47
  57  0.895  0.771  0.726-  53 1.17  55 1.20
  58  0.105  0.229  0.274-  54 1.17  56 1.20
  59  0.732  0.953  0.386-  51 1.18   2 2.61
  60  0.268  0.047  0.614-  52 1.18   1 2.61
 

IMPORTANT INFORMATION: All symmetrisations will be switched off!
NOSYMM: (Re-)initialisation of all symmetry stuff for point group C_1.

 
 
 KPOINTS: KPOINTS created by Atomic Simulation Env

Automatic generation of k-mesh.
Space group operators:
 irot       det(A)        alpha          n_x          n_y          n_z        tau_x        tau_y        tau_z
    1     1.000000     0.000000     1.000000     0.000000     0.000000     0.000000     0.000000     0.000000
 
 Subroutine IBZKPT returns following result:
 ===========================================
 
 Found      4 irreducible k-points:
 
 Following reciprocal coordinates:
            Coordinates               Weight
  0.250000  0.250000  0.250000      2.000000
 -0.250000  0.250000  0.250000      2.000000
  0.250000 -0.250000  0.250000      2.000000
 -0.250000 -0.250000  0.250000      2.000000
 
 Following cartesian coordinates:
            Coordinates               Weight
  0.025386  0.021393  0.024826      2.000000
 -0.039856  0.024859  0.025168      2.000000
  0.025903 -0.037155  0.024248      2.000000
 -0.039338 -0.033689  0.024590      2.000000
 


--------------------------------------------------------------------------------------------------------




 Dimension of arrays:
   k-points           NKPTS =      4   k-points in BZ     NKDIM =      4   number of bands    NBANDS=    144
   number of dos      NEDOS =    301   number of ions     NIONS =     60
   non local maximal  LDIM  =      6   non local SUM 2l+1 LMDIM =     18
   total plane-waves  NPLWV = 336000
   max r-space proj   IRMAX =      1   max aug-charges    IRDMAX=  21667
   dimension x,y,z NGX =    60 NGY =   70 NGZ =   80
   dimension x,y,z NGXF=   120 NGYF=  140 NGZF=  160
   support grid    NGXF=   120 NGYF=  140 NGZF=  160
   ions per type =               2  16  24  18
   NGX,Y,Z   is equivalent  to a cutoff of  12.50, 13.18, 13.16 a.u.
   NGXF,Y,Z  is equivalent  to a cutoff of  25.00, 26.37, 26.32 a.u.

 SYSTEM =  unknown system                          
 POSCAR =  Cd  H  C  N                             

 Startparameter for this run:
   NWRITE =      2    write-flag & timer
   PREC   = accura    normal or accurate (medium, high low for compatibility)
   ISTART =      1    job   : 0-new  1-cont  2-samecut
   ICHARG =      0    charge: 1-file 2-atom 10-const
   ISPIN  =      1    spin polarized calculation?
   LNONCOLLINEAR =      F non collinear calculations
   LSORBIT =      F    spin-orbit coupling
   INIWAV =      1    electr: 0-lowe 1-rand  2-diag
   LASPH  =      F    aspherical Exc in radial PAW
   METAGGA=      F    non-selfconsistent MetaGGA calc.

 Electronic Relaxation 1
   ENCUT  =  520.0 eV  38.22 Ry    6.18 a.u.  14.84 16.41 18.79*2*pi/ulx,y,z
   ENINI  =  520.0     initial cutoff
   ENAUG  =  644.9 eV  augmentation charge cutoff
   NELM   =    150;   NELMIN=  2; NELMDL=  0     # of ELM steps 
   EDIFF  = 0.1E-05   stopping-criterion for ELM
   LREAL  =      F    real-space projection
   NLSPLINE    = F    spline interpolate recip. space projectors
   LCOMPAT=      F    compatible to vasp.4.4
   GGA_COMPAT  = T    GGA compatible to vasp.4.4-vasp.4.6
   LMAXPAW     = -100 max onsite density
   LMAXMIX     =    2 max onsite mixed and CHGCAR
   VOSKOWN=      0    Vosko Wilk Nusair interpolation
   ROPT   =    0.00000   0.00000   0.00000   0.00000
 Ionic relaxation
   EDIFFG = 0.1E-04   stopping-criterion for IOM
   NSW    =      0    number of steps for IOM
   NBLOCK =      1;   KBLOCK =      1    inner block; outer block 
   IBRION =     -1    ionic relax: 0-MD 1-quasi-New 2-CG
   NFREE  =      0    steps in history (QN), initial steepest desc. (CG)
   ISIF   =      2    stress and relaxation
   IWAVPR =     10    prediction:  0-non 1-charg 2-wave 3-comb
   ISYM   =      0    0-nonsym 1-usesym 2-fastsym
   LCORR  =      T    Harris-Foulkes like correction to forces

   POTIM  = 0.5000    time-step for ionic-motion
   TEIN   =    0.0    initial temperature
   TEBEG  =    0.0;   TEEND  =   0.0 temperature during run
   SMASS  =  -3.00    Nose mass-parameter (am)
   estimated Nose-frequenzy (Omega)   =  0.10E-29 period in steps =****** mass=  -0.146E-26a.u.
   SCALEE = 1.0000    scale energy and forces
   NPACO  =    256;   APACO  = 16.0  distance and # of slots for P.C.
   PSTRESS=    0.0 pullay stress

  Mass of Ions in am
   POMASS = 112.41  1.00 12.01 14.00
  Ionic Valenz
   ZVAL   =  12.00  1.00  4.00  5.00
  Atomic Wigner-Seitz radii
   RWIGS  =  -1.00 -1.00 -1.00 -1.00
  virtual crystal weights 
   VCA    =   1.00  1.00  1.00  1.00
   NELECT =     226.0000    total number of electrons
   NUPDOWN=      -1.0000    fix difference up-down

 DOS related values:
   EMIN   =  10.00;   EMAX   =-10.00  energy-range for DOS
   EFERMI =   0.00
   ISMEAR =     0;   SIGMA  =   0.01  broadening in eV -4-tet -1-fermi 0-gaus

 Electronic relaxation 2 (details)
   IALGO  =     68    algorithm
   LDIAG  =      T    sub-space diagonalisation (order eigenvalues)
   LSUBROT=      F    optimize rotation matrix (better conditioning)
   TURBO    =      0    0=normal 1=particle mesh
   IRESTART =      0    0=no restart 2=restart with 2 vectors
   NREBOOT  =      0    no. of reboots
   NMIN     =      0    reboot dimension
   EREF     =   0.00    reference energy to select bands
   IMIX   =      4    mixing-type and parameters
     AMIX     =   0.40;   BMIX     =  1.00
     AMIX_MAG =   1.60;   BMIX_MAG =  1.00
     AMIN     =   0.10
     WC   =   100.;   INIMIX=   1;  MIXPRE=   1;  MAXMIX= -45

 Intra band minimization:
   WEIMIN = 0.0000     energy-eigenvalue tresh-hold
   EBREAK =  0.17E-08  absolut break condition
   DEPER  =   0.30     relativ break condition  

   TIME   =   0.40     timestep for ELM

  volume/ion in A,a.u.               =      11.03        74.43
  Fermi-wavevector in a.u.,A,eV,Ry     =   1.144284  2.162384 17.815286  1.309387
  Thomas-Fermi vector in A             =   2.280977
 
 Write flags
   LWAVE        =      T    write WAVECAR
   LDOWNSAMPLE  =      F    k-point downsampling of WAVECAR
   LCHARG       =      T    write CHGCAR
   LVTOT        =      F    write LOCPOT, total local potential
   LVHAR        =      F    write LOCPOT, Hartree potential only
   LELF         =      F    write electronic localiz. function (ELF)
   LORBIT       =     11    0 simple, 1 ext, 2 COOP (PROOUT), +10 PAW based schemes


 Dipole corrections
   LMONO  =      F    monopole corrections only (constant potential shift)
   LDIPOL =      F    correct potential (dipole corrections)
   IDIPOL =      0    1-x, 2-y, 3-z, 4-all directions 
   EPSILON=  1.0000000 bulk dielectric constant

 Exchange correlation treatment:
   GGA     =    PE    GGA type
   LEXCH   =     8    internal setting for exchange type
   VOSKOWN=      0    Vosko Wilk Nusair interpolation
   LHFCALC =     F    Hartree Fock is set to
   LHFONE  =     F    Hartree Fock one center treatment
   AEXX    =    0.0000 exact exchange contribution

 Linear response parameters
   LEPSILON=     F    determine dielectric tensor
   LRPA    =     F    only Hartree local field effects (RPA)
   LNABLA  =     F    use nabla operator in PAW spheres
   LVEL    =     F    velocity operator in full k-point grid
   LINTERFAST=   F  fast interpolation
   KINTER  =     0    interpolate to denser k-point grid
   CSHIFT  =0.1000    complex shift for real part using Kramers Kronig
   OMEGAMAX=  -1.0    maximum frequency
   DEG_THRESHOLD= 0.2000000E-02 threshold for treating states as degnerate
   RTIME   =   -0.100 relaxation time in fs
  (WPLASMAI=    0.000 imaginary part of plasma frequency in eV, 0.658/RTIME)
   DFIELD  = 0.0000000 0.0000000 0.0000000 field for delta impulse in time
 
 Orbital magnetization related:
   ORBITALMAG=     F  switch on orbital magnetization
   LCHIMAG   =     F  perturbation theory with respect to B field
   DQ        =  0.001000  dq finite difference perturbation B field
   LLRAUG    =     F  two centre corrections for induced B field



--------------------------------------------------------------------------------------------------------


 Static calculation
 charge density and potential will be updated during run
 non-spin polarized calculation
 RMM-DIIS sequential band-by-band and
  variant of blocked Davidson during initial phase
 perform sub-space diagonalisation
    before iterative eigenvector-optimisation
 modified Broyden-mixing scheme, WC =      100.0
 initial mixing is a Kerker type mixing with AMIX =  0.4000 and BMIX =      1.0000
 Hartree-type preconditioning will be used
 using additional bands           31
 reciprocal scheme for non local part
 use partial core corrections
 calculate Harris-corrections to forces 
   (improved forces if not selfconsistent)
 use gradient corrections 
 use of overlap-Matrix (Vanderbilt PP)
 Gauss-broadening in eV      SIGMA  =   0.01


--------------------------------------------------------------------------------------------------------


  energy-cutoff  :      520.00
  volume of cell :      661.81
      direct lattice vectors                 reciprocal lattice vectors
     7.677706124  0.046375988  2.179335837     0.130482975 -0.006932362 -0.000682978
     0.464544354  8.521953746  2.251697048    -0.001035446  0.117094968  0.001156064
     0.047623000 -0.099363322 10.106926504    -0.027905092 -0.024592486  0.098831760

  length of vectors
     7.981154475  8.826643569 10.107527115     0.130668783  0.117105253  0.105599248


 
 old parameters found on file WAVECAR:
  energy-cutoff  :      520.00
  volume of cell :      661.81
      direct lattice vectors                 reciprocal lattice vectors
     7.677706124  0.046375988  2.179335837     0.130482975 -0.006932362 -0.000682978
     0.464544354  8.521953746  2.251697048    -0.001035446  0.117094968  0.001156064
     0.047623000 -0.099363322 10.106926504    -0.027905092 -0.024592486  0.098831760

  length of vectors

 
 k-points in units of 2pi/SCALE and weight: KPOINTS created by Atomic Simulation Env
   0.02538561  0.02139253  0.02482621       0.250
  -0.03985588  0.02485871  0.02516770       0.250
   0.02590333 -0.03715495  0.02424818       0.250
  -0.03933816 -0.03368877  0.02458967       0.250
 
 k-points in reciprocal lattice and weights: KPOINTS created by Atomic Simulation Env
   0.25000000  0.25000000  0.25000000       0.250
  -0.25000000  0.25000000  0.25000000       0.250
   0.25000000 -0.25000000  0.25000000       0.250
  -0.25000000 -0.25000000  0.25000000       0.250
 
 position of ions in fractional coordinates (direct lattice) 
   0.20711390  0.87381094  0.45873607
   0.79288331  0.12618477  0.54126159
   0.70508515  0.96044537  0.87004003
   0.29491078  0.03954926  0.12996507
   0.85998410  0.22225623  0.12046611
   0.14002222  0.77773947  0.87953453
   0.98339771  0.41257095  0.89838600
   0.01660339  0.58742478  0.10161477
   0.49742939  0.77974394  0.65215743
   0.50257003  0.22025876  0.34783622
   0.25042246  0.26819383  0.76626896
   0.74958080  0.73180897  0.23373571
   0.61279123  0.56122938  0.81689756
   0.38721043  0.43877920  0.18309924
   0.71040320  0.99235627  0.10708074
   0.28959521  0.00764067  0.89292232
   0.48606121  0.29624796  0.87530257
   0.51394186  0.70375832  0.12469840
   0.76897772  0.05723113  0.88063786
   0.23101788  0.94276933  0.11936305
   0.97341841  0.39527209  0.62843847
   0.02658125  0.60472599  0.37156210
   0.85349088  0.20336646  0.01963575
   0.14650885  0.79663045  0.98036506
   0.92592378  0.30883292  0.89500334
   0.07407870  0.69116163  0.10499740
   0.24447816  0.51036840  0.65682034
   0.75552128  0.48963321  0.34318146
   0.10923452  0.50031167  0.58380468
   0.89076780  0.49968526  0.41619853
   0.44335643  0.66524345  0.68148915
   0.55664420  0.33476046  0.31850892
   0.30558142  0.38058872  0.74575935
   0.69441649  0.61941644  0.25424397
   0.91706352  0.28226903  0.76621179
   0.08293759  0.71772669  0.23378799
   0.50845269  0.54186554  0.77355601
   0.49154771  0.45814191  0.22644329
   0.77320799  0.07529928  0.01273374
   0.22678920  0.92469647  0.98726689
   0.43804109  0.39671296  0.80567064
   0.56195931  0.60329449  0.19432866
   0.31442639  0.65113379  0.62461553
   0.68557306  0.34886781  0.37538429
   0.12713710  0.60086489  0.45860924
   0.87286393  0.39913202  0.54139228
   0.83879131  0.15783294  0.76069120
   0.16120820  0.84216749  0.23930986
   0.47410642  0.94414513  0.31629636
   0.52589167  0.05585764  0.68370250
   0.60086444  0.94831960  0.35598123
   0.39912202  0.05168200  0.64401348
   0.85772311  0.68001633  0.83376312
   0.14227798  0.31997943  0.16624062
   0.93215783  0.86435178  0.61517284
   0.06783935  0.13564399  0.38482976
   0.89532959  0.77115419  0.72564103
   0.10467350  0.22885312  0.27434685
   0.73239373  0.95294947  0.38592490
   0.26760712  0.04705091  0.61407193
 
 position of ions in cartesian coordinates  (Angst):
   2.01793000  7.41060000  7.05534000
   6.17192000  1.05833000  7.48258000
   5.90104000  8.13112000 12.49268000
   2.28880000  0.33780000  2.04531000
   6.71169000  1.92197000  3.59219000
   1.47823000  6.54696000 10.94578000
   7.78468000  3.47225000 12.15206000
   0.40520000  4.99668000  2.38590000
   4.21240000  6.60321000  9.43112000
   3.97747000  1.86578000  5.10678000
   2.08375000  2.22101000  8.89427000
   6.10615000  6.24798000  5.64375000
   5.00445000  4.73002000 10.85552000
   3.18544000  3.73902000  3.68243000
   5.92036000  8.47912000  4.86495000
   2.26950000 -0.01018000  9.67303000
   3.91114000  2.46018000 10.57297000
   4.27876000  6.00884000  3.96502000
   5.97251000  0.43588000 10.70527000
   2.21733000  8.03309000  3.83269000
   7.68717000  3.35119000  9.36302000
   0.50270000  5.11776000  5.17494000
   6.64826000  1.77071000  2.51642000
   1.54161000  6.69823000 12.02154000
   7.29506000  2.58587000 11.75903000
   0.89483000  5.88305000  2.77893000
   2.14540000  4.29541000  8.32043000
   6.04447000  4.17357000  6.21755000
   1.09889000  4.21069000  7.26508000
   7.09100000  4.25825000  7.27291000
   3.74545000  5.62202000  9.35191000
   4.44443000  2.84698000  5.18604000
   2.55848000  3.18343000  9.06027000
   5.63138000  5.28558000  5.47773000
   7.20856000  2.37188000 10.37822000
   0.98132000  6.09705000  4.15973000
   4.19231000  4.56447000 10.14648000
   3.99757000  3.90456000  4.39149000
   5.97205000  0.67629000  1.98333000
   2.21780000  7.79264000 12.55462000
   3.58581000  3.32103000  9.99077000
   4.60407000  5.14800000  4.54720000
   2.74630000  5.50145000  8.46434000
   5.44357000  2.96753000  6.07362000
   1.27709000  5.08087000  6.26517000
   6.91279000  3.38807000  8.27280000
   6.54954000  1.30836000  9.87165000
   1.64033000  7.16061000  4.66632000
   4.09371000  8.03652000  6.35595000
   4.09615000  0.43247000  8.18200000
   5.07075000  8.07403000  7.04269000
   3.11902000  0.39495000  7.49519000
   6.94095000  5.75200000 11.82724000
   1.24893000  2.71693000  2.71075000
   7.58766000  7.34807000 10.19525000
   0.60219000  1.12086000  4.34272000
   7.26687000  6.54116000 11.02163000
   0.92303000  1.92787000  3.51623000
   6.08417000  8.11661000  7.64240000
   2.10571000  0.35236000  6.89553000
 


--------------------------------------------------------------------------------------------------------


 k-point  1 :   0.2500 0.2500 0.2500  plane waves:   17826
 k-point  2 :  -0.2500 0.2500 0.2500  plane waves:   17815
 k-point  3 :   0.2500-0.2500 0.2500  plane waves:   17829
 k-point  4 :  -0.2500-0.2500 0.2500  plane waves:   17805

 maximum and minimum number of plane-waves per node :       763      721

 maximum number of plane-waves:     17829
 maximum index in each direction: 
   IXMAX=   15   IYMAX=   16   IZMAX=   18
   IXMIN=  -15   IYMIN=  -16   IZMIN=  -19


 parallel 3D FFT for wavefunctions:
    minimum data exchange during FFTs selected (reduces bandwidth)
 parallel 3D FFT for charge:
    minimum data exchange during FFTs selected (reduces bandwidth)


 total amount of memory used by VASP MPI-rank0    44361. kBytes
=======================================================================

   base      :      30000. kBytes
   nonl-proj :       2441. kBytes
   fftplans  :       2711. kBytes
   grid      :       5560. kBytes
   one-center:         46. kBytes
   wavefun   :       3603. kBytes
 
     INWAV:  cpu time    0.3200: real time    0.3209
 Broyden mixing: mesh for mixing (old mesh)
   NGX = 29   NGY = 33   NGZ = 37
  (NGX  =120   NGY  =140   NGZ  =160)
  gives a total of  35409 points

 charge density for first step will be calculated from the start-wavefunctions


--------------------------------------------------------------------------------------------------------


 Maximum index for augmentation-charges          926 (set IRDMAX)


--------------------------------------------------------------------------------------------------------


 initial charge from wavefunction
 First call to EWALD:  gamma=   0.203
 Maximum number of real-space cells 3x 3x 3
 Maximum number of reciprocal cells 3x 3x 3

    FEWALD:  cpu time    0.0021: real time    0.0024


--------------------------------------- Iteration      1(   1)  ---------------------------------------


    POTLOK:  cpu time    0.0427: real time    0.0543
    SETDIJ:  cpu time    0.0058: real time    0.0059
     EDDAV:  cpu time    0.8295: real time    0.8323
       DOS:  cpu time    0.0003: real time    0.0003
    CHARGE:  cpu time    0.0499: real time    0.0501
    MIXING:  cpu time    0.0022: real time    0.0023
    --------------------------------------------
      LOOP:  cpu time    0.9306: real time    0.9452

 eigenvalue-minimisations  :   664
 total energy-change (2. order) :-0.4179727E+03  (-0.5450133E-08)
 number of electron     225.9999991 magnetization 
 augmentation part       18.0999861 magnetization 

 Broyden mixing:
  rms(total) = 0.10051E-03    rms(broyden)= 0.10049E-03
  rms(prec ) = 0.15113E-03
  weight for this iteration     100.00

 Free energy of the ion-electron system (eV)
  ---------------------------------------------------
  alpha Z        PSCENC =       440.78660121
  Ewald energy   TEWEN  =     -5281.31989988
  -Hartree energ DENC   =     -5702.19423204
  -exchange      EXHF   =         0.00000000
  -V(xc)+E(xc)   XCENC  =       748.75504609
  PAW double counting   =     22220.35215894   -22189.75677717
  entropy T*S    EENTRO =        -0.00000000
  eigenvalues    EBANDS =     -1733.96038715
  atomic energy  EATOM  =     11079.36474172
  Solvation  Ediel_sol  =         0.00000000
  ---------------------------------------------------
  free energy    TOTEN  =      -417.97274829 eV

  energy without entropy =     -417.97274829  energy(sigma->0) =     -417.97274829


--------------------------------------------------------------------------------------------------------




--------------------------------------- Iteration      1(   2)  ---------------------------------------


    POTLOK:  cpu time    0.0404: real time    0.1239
    SETDIJ:  cpu time    0.0053: real time    0.0053
    EDDIAG:  cpu time    0.1676: real time    0.1682
  RMM-DIIS:  cpu time    0.4179: real time    0.4187
    ORTHCH:  cpu time    0.0204: real time    0.0204
       DOS:  cpu time    0.0002: real time    0.0002
    --------------------------------------------
      LOOP:  cpu time    0.6517: real time    0.7368

 eigenvalue-minimisations  :   273
 total energy-change (2. order) : 0.1034277E-07  (-0.3525209E-08)
 number of electron     225.9999991 magnetization 
 augmentation part       18.0999861 magnetization 

 Free energy of the ion-electron system (eV)
  ---------------------------------------------------
  alpha Z        PSCENC =       440.78660121
  Ewald energy   TEWEN  =     -5281.31989988
  -Hartree energ DENC   =     -5702.19564853
  -exchange      EXHF   =         0.00000000
  -V(xc)+E(xc)   XCENC  =       748.75507011
  PAW double counting   =     22220.35692623   -22189.76161674
  entropy T*S    EENTRO =        -0.00000000
  eigenvalues    EBANDS =     -1733.95892239
  atomic energy  EATOM  =     11079.36474172
  Solvation  Ediel_sol  =         0.00000000
  ---------------------------------------------------
  free energy    TOTEN  =      -417.97274828 eV

  energy without entropy =     -417.97274828  energy(sigma->0) =     -417.97274828


--------------------------------------------------------------------------------------------------------




 average (electrostatic) potential at core
  the test charge radii are     1.0698  0.5201  0.6991  0.7089
  (the norm of the test charge is              1.0000)
       1 -39.5517       2 -39.5514       3 -36.9273       4 -36.9278       5 -36.9381
       6 -36.9382       7 -36.9509       8 -36.9511       9 -37.0571      10 -37.0570
      11 -37.2395      12 -37.2394      13 -36.8730      14 -36.8732      15 -37.0059
      16 -37.0059      17 -37.0853      18 -37.0856      19 -54.4351      20 -54.4352
      21 -55.3513      22 -55.3513      23 -53.9178      24 -53.9178      25 -53.8639
      26 -53.8640      27 -55.0248      28 -55.0247      29 -55.3633      30 -55.3633
      31 -54.5531      32 -54.5532      33 -54.0007      34 -54.0007      35 -54.9352
      36 -54.9352      37 -53.8064      38 -53.8066      39 -53.7732      40 -53.7732
      41 -54.0437      42 -54.0438      43 -68.8066      44 -68.8065      45 -69.0103
      46 -69.0103      47 -68.6889      48 -68.6890      49 -67.7953      50 -67.7944
      51 -71.4169      52 -71.4170      53 -67.8877      54 -67.8890      55 -67.8260
      56 -67.8252      57 -71.3935      58 -71.3939      59 -67.8508      60 -67.8518
 
 
 
 E-fermi :   0.3351     XC(G=0):  -8.4222     alpha+bet : -7.1097


 k-point     1 :       0.2500    0.2500    0.2500
  band No.  band energies     occupation 
      1     -21.9073      2.00000
      2     -21.8446      2.00000
      3     -21.8414      2.00000
      4     -21.8375      2.00000
      5     -20.0888      2.00000
      6     -18.9602      2.00000
      7     -18.8266      2.00000
      8     -18.7715      2.00000
      9     -18.5924      2.00000
     10     -17.7745      2.00000
     11     -17.6203      2.00000
     12     -17.5852      2.00000
     13     -17.5755      2.00000
     14     -17.5606      2.00000
     15     -15.6541      2.00000
     16     -14.9217      2.00000
     17     -14.8976      2.00000
     18     -14.8320      2.00000
     19     -14.7618      2.00000
     20     -14.3612      2.00000
     21     -14.2484      2.00000
     22     -13.8588      2.00000
     23     -13.2380      2.00000
     24     -12.0851      2.00000
     25     -11.7416      2.00000
     26     -10.8230      2.00000
     27     -10.8089      2.00000
     28     -10.6961      2.00000
     29     -10.4051      2.00000
     30     -10.3741      2.00000
     31     -10.2167      2.00000
     32      -9.9225      2.00000
     33      -9.7642      2.00000
     34      -8.5791      2.00000
     35      -8.3165      2.00000
     36      -8.2626      2.00000
     37      -7.8724      2.00000
     38      -7.5931      2.00000
     39      -7.5104      2.00000
     40      -7.4080      2.00000
     41      -7.1993      2.00000
     42      -7.0991      2.00000
     43      -7.0323      2.00000
     44      -6.9089      2.00000
     45      -6.8032      2.00000
     46      -6.7842      2.00000
     47      -6.7420      2.00000
     48      -6.6415      2.00000
     49      -6.6217      2.00000
     50      -6.5538      2.00000
     51      -6.5326      2.00000
     52      -6.4559      2.00000
     53      -6.4319      2.00000
     54      -6.3504      2.00000
     55      -6.3032      2.00000
     56      -6.2691      2.00000
     57      -6.2092      2.00000
     58      -6.1871      2.00000
     59      -6.0944      2.00000
     60      -6.0690      2.00000
     61      -6.0127      2.00000
     62      -5.8876      2.00000
     63      -5.8666      2.00000
     64      -5.7568      2.00000
     65      -5.7296      2.00000
     66      -5.6654      2.00000
     67      -5.5636      2.00000
     68      -5.4655      2.00000
     69      -5.3825      2.00000
     70      -5.2863      2.00000
     71      -5.2657      2.00000
     72      -5.1909      2.00000
     73      -5.0968      2.00000
     74      -4.9669      2.00000
     75      -4.9371      2.00000
     76      -4.8947      2.00000
     77      -4.7727      2.00000
     78      -4.6309      2.00000
     79      -4.5182      2.00000
     80      -4.4426      2.00000
     81      -4.2953      2.00000
     82      -4.2378      2.00000
     83      -4.1117      2.00000
     84      -3.8577      2.00000
     85      -3.8306      2.00000
     86      -3.7444      2.00000
     87      -3.6916      2.00000
     88      -3.5687      2.00000
     89      -3.5085      2.00000
     90      -3.3983      2.00000
     91      -2.8970      2.00000
     92      -2.7692      2.00000
     93      -2.3448      2.00000
     94      -2.2003      2.00000
     95      -2.1380      2.00000
     96      -2.0877      2.00000
     97      -1.9622      2.00000
     98      -1.8157      2.00000
     99      -1.6273      2.00000
    100      -1.5766      2.00000
    101      -1.5536      2.00000
    102      -1.4686      2.00000
    103      -1.2721      2.00000
    104      -1.0752      2.00000
    105      -0.6982      2.00000
    106      -0.6540      2.00000
    107      -0.3902      2.00000
    108      -0.1601      2.00000
    109      -0.0691      2.00000
    110       0.0067      2.00000
    111       0.0871      2.00000
    112       0.2181      2.00000
    113       0.2818      2.00000
    114       1.9331      0.00000
    115       2.0695      0.00000
    116       2.9642      0.00000
    117       3.1500      0.00000
    118       3.3645      0.00000
    119       3.4201      0.00000
    120       3.5673      0.00000
    121       3.7885      0.00000
    122       4.0068      0.00000
    123       4.0344      0.00000
    124       4.5200      0.00000
    125       4.8514      0.00000
    126       5.1483      0.00000
    127       5.3422      0.00000
    128       5.4613      0.00000
    129       5.4879      0.00000
    130       5.6284      0.00000
    131       5.6897      0.00000
    132       5.8102      0.00000
    133       6.3752      0.00000
    134       6.4529      0.00000
    135       6.6389      0.00000
    136       6.7781      0.00000
    137       6.8055      0.00000
    138       7.0149      0.00000
    139       7.1777      0.00000
    140       7.3492      0.00000
    141       7.4191      0.00000
    142       7.5046      0.00000
    143       7.6401      0.00000
    144       7.6493      0.00000

 k-point     2 :      -0.2500    0.2500    0.2500
  band No.  band energies     occupation 
      1     -21.9072      2.00000
      2     -21.8447      2.00000
      3     -21.8414      2.00000
      4     -21.8375      2.00000
      5     -20.0888      2.00000
      6     -18.9608      2.00000
      7     -18.8265      2.00000
      8     -18.7714      2.00000
      9     -18.5919      2.00000
     10     -17.7749      2.00000
     11     -17.6204      2.00000
     12     -17.5847      2.00000
     13     -17.5758      2.00000
     14     -17.5604      2.00000
     15     -15.6542      2.00000
     16     -14.9261      2.00000
     17     -14.8920      2.00000
     18     -14.8337      2.00000
     19     -14.7613      2.00000
     20     -14.3608      2.00000
     21     -14.2497      2.00000
     22     -13.8577      2.00000
     23     -13.2368      2.00000
     24     -12.0868      2.00000
     25     -11.7412      2.00000
     26     -10.8311      2.00000
     27     -10.8050      2.00000
     28     -10.6957      2.00000
     29     -10.4040      2.00000
     30     -10.3729      2.00000
     31     -10.2172      2.00000
     32      -9.9231      2.00000
     33      -9.7591      2.00000
     34      -8.5882      2.00000
     35      -8.3183      2.00000
     36      -8.2452      2.00000
     37      -7.8663      2.00000
     38      -7.5868      2.00000
     39      -7.5160      2.00000
     40      -7.4563      2.00000
     41      -7.1336      2.00000
     42      -7.0710      2.00000
     43      -7.0496      2.00000
     44      -6.9281      2.00000
     45      -6.9152      2.00000
     46      -6.7759      2.00000
     47      -6.7539      2.00000
     48      -6.6157      2.00000
     49      -6.5853      2.00000
     50      -6.5653      2.00000
     51      -6.4825      2.00000
     52      -6.4584      2.00000
     53      -6.4366      2.00000
     54      -6.3492      2.00000
     55      -6.3017      2.00000
     56      -6.2592      2.00000
     57      -6.1987      2.00000
     58      -6.1565      2.00000
     59      -6.1037      2.00000
     60      -6.0029      2.00000
     61      -5.9841      2.00000
     62      -5.9192      2.00000
     63      -5.8584      2.00000
     64      -5.8246      2.00000
     65      -5.7577      2.00000
     66      -5.6940      2.00000
     67      -5.6424      2.00000
     68      -5.4288      2.00000
     69      -5.4040      2.00000
     70      -5.3043      2.00000
     71      -5.2366      2.00000
     72      -5.1626      2.00000
     73      -5.0992      2.00000
     74      -4.9867      2.00000
     75      -4.9260      2.00000
     76      -4.8718      2.00000
     77      -4.7339      2.00000
     78      -4.6296      2.00000
     79      -4.4990      2.00000
     80      -4.4645      2.00000
     81      -4.3152      2.00000
     82      -4.2351      2.00000
     83      -4.1311      2.00000
     84      -3.9183      2.00000
     85      -3.8322      2.00000
     86      -3.7194      2.00000
     87      -3.6496      2.00000
     88      -3.5258      2.00000
     89      -3.5182      2.00000
     90      -3.3616      2.00000
     91      -2.9281      2.00000
     92      -2.7988      2.00000
     93      -2.3389      2.00000
     94      -2.2006      2.00000
     95      -2.1420      2.00000
     96      -2.0594      2.00000
     97      -1.9786      2.00000
     98      -1.8361      2.00000
     99      -1.6236      2.00000
    100      -1.5928      2.00000
    101      -1.5235      2.00000
    102      -1.4794      2.00000
    103      -1.2855      2.00000
    104      -1.0288      2.00000
    105      -0.7380      2.00000
    106      -0.6271      2.00000
    107      -0.4379      2.00000
    108      -0.1678      2.00000
    109      -0.0393      2.00000
    110       0.0134      2.00000
    111       0.0874      2.00000
    112       0.2106      2.00000
    113       0.2856      2.00000
    114       1.9467      0.00000
    115       2.0563      0.00000
    116       2.9668      0.00000
    117       3.1629      0.00000
    118       3.3461      0.00000
    119       3.4704      0.00000
    120       3.5390      0.00000
    121       3.7563      0.00000
    122       3.9630      0.00000
    123       4.0716      0.00000
    124       4.5724      0.00000
    125       4.8247      0.00000
    126       5.0998      0.00000
    127       5.4322      0.00000
    128       5.4818      0.00000
    129       5.5012      0.00000
    130       5.5889      0.00000
    131       5.8096      0.00000
    132       5.9481      0.00000
    133       6.2051      0.00000
    134       6.3397      0.00000
    135       6.4484      0.00000
    136       6.7262      0.00000
    137       6.8360      0.00000
    138       6.9331      0.00000
    139       7.2604      0.00000
    140       7.3241      0.00000
    141       7.3653      0.00000
    142       7.5329      0.00000
    143       7.6380      0.00000
    144       7.6580      0.00000

 k-point     3 :       0.2500   -0.2500    0.2500
  band No.  band energies     occupation 
      1     -21.9072      2.00000
      2     -21.8446      2.00000
      3     -21.8414      2.00000
      4     -21.8376      2.00000
      5     -20.0886      2.00000
      6     -18.9620      2.00000
      7     -18.8307      2.00000
      8     -18.7695      2.00000
      9     -18.5869      2.00000
     10     -17.7765      2.00000
     11     -17.6202      2.00000
     12     -17.5843      2.00000
     13     -17.5762      2.00000
     14     -17.5606      2.00000
     15     -15.6552      2.00000
     16     -14.9176      2.00000
     17     -14.9075      2.00000
     18     -14.7971      2.00000
     19     -14.7914      2.00000
     20     -14.3616      2.00000
     21     -14.2454      2.00000
     22     -13.8664      2.00000
     23     -13.2247      2.00000
     24     -12.0722      2.00000
     25     -11.7595      2.00000
     26     -10.8361      2.00000
     27     -10.8131      2.00000
     28     -10.7244      2.00000
     29     -10.4055      2.00000
     30     -10.3702      2.00000
     31     -10.1729      2.00000
     32      -9.9445      2.00000
     33      -9.7354      2.00000
     34      -8.5576      2.00000
     35      -8.3235      2.00000
     36      -8.2299      2.00000
     37      -7.9522      2.00000
     38      -7.5927      2.00000
     39      -7.5699      2.00000
     40      -7.4346      2.00000
     41      -7.1167      2.00000
     42      -7.0627      2.00000
     43      -6.9568      2.00000
     44      -6.8904      2.00000
     45      -6.8323      2.00000
     46      -6.8063      2.00000
     47      -6.7393      2.00000
     48      -6.6658      2.00000
     49      -6.6204      2.00000
     50      -6.5847      2.00000
     51      -6.4734      2.00000
     52      -6.4395      2.00000
     53      -6.3951      2.00000
     54      -6.3564      2.00000
     55      -6.3339      2.00000
     56      -6.3096      2.00000
     57      -6.2885      2.00000
     58      -6.2105      2.00000
     59      -6.1110      2.00000
     60      -5.9994      2.00000
     61      -5.9616      2.00000
     62      -5.9308      2.00000
     63      -5.8648      2.00000
     64      -5.8544      2.00000
     65      -5.7419      2.00000
     66      -5.6330      2.00000
     67      -5.5400      2.00000
     68      -5.4509      2.00000
     69      -5.3661      2.00000
     70      -5.3468      2.00000
     71      -5.2125      2.00000
     72      -5.1183      2.00000
     73      -5.0544      2.00000
     74      -5.0015      2.00000
     75      -4.9502      2.00000
     76      -4.8551      2.00000
     77      -4.6730      2.00000
     78      -4.6485      2.00000
     79      -4.6240      2.00000
     80      -4.4798      2.00000
     81      -4.3629      2.00000
     82      -4.2262      2.00000
     83      -4.1100      2.00000
     84      -3.9191      2.00000
     85      -3.8760      2.00000
     86      -3.6758      2.00000
     87      -3.6661      2.00000
     88      -3.5884      2.00000
     89      -3.4846      2.00000
     90      -3.3101      2.00000
     91      -2.8416      2.00000
     92      -2.7893      2.00000
     93      -2.3221      2.00000
     94      -2.2937      2.00000
     95      -2.1220      2.00000
     96      -2.0709      2.00000
     97      -2.0448      2.00000
     98      -1.8207      2.00000
     99      -1.6158      2.00000
    100      -1.5841      2.00000
    101      -1.5141      2.00000
    102      -1.4554      2.00000
    103      -1.3063      2.00000
    104      -1.0438      2.00000
    105      -0.7229      2.00000
    106      -0.6411      2.00000
    107      -0.4151      2.00000
    108      -0.1700      2.00000
    109      -0.0283      2.00000
    110       0.0194      2.00000
    111       0.0757      2.00000
    112       0.2059      2.00000
    113       0.2843      2.00000
    114       1.9691      0.00000
    115       2.1092      0.00000
    116       2.8563      0.00000
    117       3.2032      0.00000
    118       3.3200      0.00000
    119       3.4240      0.00000
    120       3.6103      0.00000
    121       3.7540      0.00000
    122       3.9994      0.00000
    123       4.0541      0.00000
    124       4.5768      0.00000
    125       4.8249      0.00000
    126       5.1302      0.00000
    127       5.3956      0.00000
    128       5.4511      0.00000
    129       5.5039      0.00000
    130       5.5582      0.00000
    131       5.7130      0.00000
    132       5.8681      0.00000
    133       6.3140      0.00000
    134       6.4617      0.00000
    135       6.5512      0.00000
    136       6.6321      0.00000
    137       6.7435      0.00000
    138       7.0902      0.00000
    139       7.2838      0.00000
    140       7.3380      0.00000
    141       7.3804      0.00000
    142       7.4970      0.00000
    143       7.5824      0.00000
    144       7.7032      0.00000

 k-point     4 :      -0.2500   -0.2500    0.2500
  band No.  band energies     occupation 
      1     -21.9072      2.00000
      2     -21.8446      2.00000
      3     -21.8415      2.00000
      4     -21.8375      2.00000
      5     -20.0887      2.00000
      6     -18.9615      2.00000
      7     -18.8307      2.00000
      8     -18.7694      2.00000
      9     -18.5876      2.00000
     10     -17.7760      2.00000
     11     -17.6201      2.00000
     12     -17.5850      2.00000
     13     -17.5760      2.00000
     14     -17.5605      2.00000
     15     -15.6548      2.00000
     16     -14.9232      2.00000
     17     -14.9021      2.00000
     18     -14.7988      2.00000
     19     -14.7897      2.00000
     20     -14.3624      2.00000
     21     -14.2470      2.00000
     22     -13.8648      2.00000
     23     -13.2225      2.00000
     24     -12.0743      2.00000
     25     -11.7594      2.00000
     26     -10.8436      2.00000
     27     -10.8041      2.00000
     28     -10.7238      2.00000
     29     -10.4035      2.00000
     30     -10.3783      2.00000
     31     -10.1726      2.00000
     32      -9.9419      2.00000
     33      -9.7348      2.00000
     34      -8.5523      2.00000
     35      -8.3196      2.00000
     36      -8.2253      2.00000
     37      -7.9321      2.00000
     38      -7.6051      2.00000
     39      -7.5618      2.00000
     40      -7.4998      2.00000
     41      -7.1271      2.00000
     42      -7.0674      2.00000
     43      -6.9439      2.00000
     44      -6.9229      2.00000
     45      -6.8080      2.00000
     46      -6.7551      2.00000
     47      -6.7350      2.00000
     48      -6.6838      2.00000
     49      -6.6152      2.00000
     50      -6.5355      2.00000
     51      -6.5129      2.00000
     52      -6.4703      2.00000
     53      -6.4390      2.00000
     54      -6.3616      2.00000
     55      -6.3321      2.00000
     56      -6.2667      2.00000
     57      -6.2630      2.00000
     58      -6.1864      2.00000
     59      -6.0955      2.00000
     60      -6.0861      2.00000
     61      -5.9354      2.00000
     62      -5.9009      2.00000
     63      -5.8671      2.00000
     64      -5.7712      2.00000
     65      -5.7269      2.00000
     66      -5.6608      2.00000
     67      -5.5509      2.00000
     68      -5.4930      2.00000
     69      -5.3925      2.00000
     70      -5.3284      2.00000
     71      -5.2292      2.00000
     72      -5.0993      2.00000
     73      -5.0826      2.00000
     74      -4.9629      2.00000
     75      -4.9496      2.00000
     76      -4.8602      2.00000
     77      -4.6964      2.00000
     78      -4.6755      2.00000
     79      -4.5854      2.00000
     80      -4.4914      2.00000
     81      -4.3652      2.00000
     82      -4.2268      2.00000
     83      -4.1639      2.00000
     84      -3.8781      2.00000
     85      -3.7863      2.00000
     86      -3.7471      2.00000
     87      -3.6806      2.00000
     88      -3.5307      2.00000
     89      -3.5047      2.00000
     90      -3.3648      2.00000
     91      -2.8281      2.00000
     92      -2.7948      2.00000
     93      -2.3215      2.00000
     94      -2.2659      2.00000
     95      -2.1065      2.00000
     96      -2.0711      2.00000
     97      -2.0230      2.00000
     98      -1.8461      2.00000
     99      -1.6164      2.00000
    100      -1.5864      2.00000
    101      -1.5192      2.00000
    102      -1.4493      2.00000
    103      -1.2787      2.00000
    104      -1.0740      2.00000
    105      -0.7280      2.00000
    106      -0.6531      2.00000
    107      -0.4193      2.00000
    108      -0.1482      2.00000
    109      -0.0682      2.00000
    110      -0.0067      2.00000
    111       0.1032      2.00000
    112       0.2340      2.00000
    113       0.2826      2.00000
    114       1.9841      0.00000
    115       2.0951      0.00000
    116       2.8879      0.00000
    117       3.2267      0.00000
    118       3.2976      0.00000
    119       3.3408      0.00000
    120       3.5902      0.00000
    121       3.8590      0.00000
    122       3.9493      0.00000
    123       4.0688      0.00000
    124       4.5216      0.00000
    125       4.8388      0.00000
    126       5.0671      0.00000
    127       5.4006      0.00000
    128       5.4671      0.00000
    129       5.5211      0.00000
    130       5.6963      0.00000
    131       5.8273      0.00000
    132       5.8894      0.00000
    133       6.1404      0.00000
    134       6.4546      0.00000
    135       6.5420      0.00000
    136       6.7167      0.00000
    137       6.7917      0.00000
    138       6.8919      0.00000
    139       7.2492      0.00000
    140       7.2957      0.00000
    141       7.4129      0.00000
    142       7.4920      0.00000
    143       7.5857      0.00000
    144       7.6556      0.00000


--------------------------------------------------------------------------------------------------------


 soft charge-density along one line, spin component           1
         0         1         2         3         4         5         6         7         8         9
 total charge-density along one line
 
 pseudopotential strength for first ion, spin component:           1
-18.171  -0.002  -0.002  -0.008   0.006 -18.205  -0.002  -0.002
 -0.002 -18.166   0.001   0.001   0.004  -0.002 -18.200   0.001
 -0.002   0.001 -18.161   0.001  -0.003  -0.002   0.001 -18.195
 -0.008   0.001   0.001 -18.166  -0.016  -0.008   0.001   0.001
  0.006   0.004  -0.003  -0.016 -18.162   0.005   0.004  -0.003
-18.205  -0.002  -0.002  -0.008   0.005 -18.219  -0.002  -0.002
 -0.002 -18.200   0.001   0.001   0.004  -0.002 -18.214   0.001
 -0.002   0.001 -18.195   0.001  -0.003  -0.002   0.001 -18.209
 -0.008   0.001   0.001 -18.200  -0.016  -0.007   0.001   0.001
  0.005   0.004  -0.003  -0.016 -18.196   0.005   0.004  -0.003
  0.000   0.000  -0.001   0.001   0.001   0.000   0.000  -0.001
  0.001   0.001  -0.002   0.001   0.002   0.001   0.001  -0.002
  0.001   0.006   0.000   0.001  -0.002   0.001   0.005   0.000
  0.001   0.002   0.010   0.002   0.000   0.001   0.002   0.010
 -0.001   0.001   0.001   0.006   0.000  -0.001   0.001   0.001
  0.001   0.006   0.000   0.001  -0.002   0.001   0.006   0.000
  0.001   0.002   0.011   0.002   0.000   0.001   0.002   0.010
 -0.001   0.001   0.001   0.007   0.001  -0.001   0.001   0.000
 total augmentation occupancy for first ion, spin component:           1
  3.926   0.831  -0.243  -0.785   1.254  -1.793  -0.748   0.241   0.730  -1.160  -0.259   0.072   0.027   0.080  -0.146  -0.012
  0.831   4.328   0.744   0.104   0.010  -0.748  -2.113  -0.678  -0.110  -0.020   0.260  -0.060  -0.046   0.102   0.084   0.018
 -0.243   0.744   5.155   1.143  -0.453   0.241  -0.678  -2.897  -1.052   0.447   0.200  -0.074   0.082   0.193   0.075  -0.016
 -0.785   0.104   1.143   4.372  -2.205   0.730  -0.110  -1.052  -2.217   2.047   0.499  -0.166   0.084   0.087  -0.048  -0.020
  1.254   0.010  -0.453  -2.205   5.962  -1.160  -0.020   0.447   2.047  -3.672  -0.513   0.148  -0.111   0.003  -0.070   0.024
 -1.793  -0.748   0.241   0.730  -1.160   1.667   0.670  -0.239  -0.678   1.071   0.259  -0.081  -0.024  -0.075   0.137   0.011
 -0.748  -2.113  -0.678  -0.110  -0.020   0.670   1.911   0.615   0.116   0.030  -0.258   0.071   0.033  -0.100  -0.078  -0.010
  0.241  -0.678  -2.897  -1.052   0.447  -0.239   0.615   2.654   0.965  -0.440  -0.194   0.075  -0.077  -0.195  -0.075   0.019
  0.730  -0.110  -1.052  -2.217   2.047  -0.678   0.116   0.965   2.070  -1.896  -0.487   0.179  -0.078  -0.085   0.039   0.022
 -1.160  -0.020   0.447   2.047  -3.672   1.071   0.030  -0.440  -1.896   3.395   0.507  -0.161   0.107  -0.001   0.069  -0.028
 -0.259   0.260   0.200   0.499  -0.513   0.259  -0.258  -0.194  -0.487   0.507   3.162  -1.114  -0.007  -0.051   0.004  -0.002
  0.072  -0.060  -0.074  -0.166   0.148  -0.081   0.071   0.075   0.179  -0.161  -1.114   0.419  -0.002   0.021   0.000   0.003
  0.027  -0.046   0.082   0.084  -0.111  -0.024   0.033  -0.077  -0.078   0.107  -0.007  -0.002   0.182  -0.016   0.016  -0.048
  0.080   0.102   0.193   0.087   0.003  -0.075  -0.100  -0.195  -0.085  -0.001  -0.051   0.021  -0.016   0.194  -0.029   0.004
 -0.146   0.084   0.075  -0.048  -0.070   0.137  -0.078  -0.075   0.039   0.069   0.004   0.000   0.016  -0.029   0.241  -0.005
 -0.012   0.018  -0.016  -0.020   0.024   0.011  -0.010   0.019   0.022  -0.028  -0.002   0.003  -0.048   0.004  -0.005   0.014
 -0.021  -0.012  -0.024  -0.008  -0.003   0.023   0.018   0.043   0.014   0.003   0.020  -0.008   0.004  -0.051   0.010  -0.001
  0.041  -0.022  -0.007   0.014   0.013  -0.044   0.024   0.011  -0.007  -0.014   0.001  -0.001  -0.005   0.010  -0.067   0.001


------------------------ aborting loop because EDIFF is reached ----------------------------------------


 


 total charge     
 
# of ion       s       p       d       tot
------------------------------------------
    1        0.304   0.240   9.630  10.175
    2        0.304   0.240   9.630  10.175
    3        0.646   0.048   0.000   0.694
    4        0.646   0.048   0.000   0.694
    5        0.642   0.048   0.000   0.690
    6        0.642   0.048   0.000   0.690
    7        0.640   0.049   0.000   0.689
    8        0.640   0.049   0.000   0.689
    9        0.646   0.048   0.000   0.694
   10        0.646   0.048   0.000   0.694
   11        0.646   0.049   0.000   0.694
   12        0.646   0.049   0.000   0.694
   13        0.634   0.049   0.000   0.683
   14        0.634   0.049   0.000   0.683
   15        0.643   0.049   0.000   0.692
   16        0.643   0.049   0.000   0.692
   17        0.643   0.047   0.000   0.690
   18        0.643   0.047   0.000   0.690
   19        0.873   1.762   0.000   2.635
   20        0.873   1.762   0.000   2.635
   21        0.862   1.749   0.000   2.611
   22        0.862   1.749   0.000   2.611
   23        0.875   1.766   0.000   2.641
   24        0.875   1.766   0.000   2.641
   25        0.874   1.779   0.000   2.653
   26        0.874   1.779   0.000   2.653
   27        0.860   1.755   0.000   2.616
   28        0.860   1.755   0.000   2.616
   29        0.862   1.752   0.000   2.614
   30        0.862   1.752   0.000   2.614
   31        0.872   1.755   0.000   2.627
   32        0.872   1.755   0.000   2.627
   33        0.874   1.781   0.000   2.655
   34        0.874   1.781   0.000   2.655
   35        0.860   1.758   0.000   2.618
   36        0.860   1.758   0.000   2.618
   37        0.874   1.780   0.000   2.654
   38        0.874   1.780   0.000   2.654
   39        0.875   1.783   0.000   2.658
   40        0.875   1.783   0.000   2.658
   41        0.875   1.763   0.000   2.638
   42        0.875   1.763   0.000   2.638
   43        1.250   2.640   0.000   3.890
   44        1.250   2.640   0.000   3.890
   45        1.262   2.652   0.000   3.914
   46        1.262   2.652   0.000   3.914
   47        1.253   2.649   0.000   3.902
   48        1.253   2.649   0.000   3.902
   49        1.282   2.546   0.000   3.828
   50        1.282   2.546   0.000   3.828
   51        1.283   2.747   0.000   4.030
   52        1.283   2.747   0.000   4.030
   53        1.312   2.497   0.000   3.809
   54        1.312   2.497   0.000   3.809
   55        1.274   2.560   0.000   3.834
   56        1.274   2.560   0.000   3.834
   57        1.282   2.747   0.000   4.028
   58        1.282   2.747   0.000   4.028
   59        1.304   2.510   0.000   3.815
   60        1.304   2.510   0.000   3.815
--------------------------------------------------
tot         54.764  90.715  19.260 164.739
 
    CHARGE:  cpu time    0.0498: real time    0.0500
    FORLOC:  cpu time    0.0133: real time    0.0134
    FORNL :  cpu time    0.5027: real time    0.5038
    STRESS:  cpu time    0.7165: real time    0.7183
    FORCOR:  cpu time    0.0472: real time    0.0472
    FORHAR:  cpu time    0.0223: real time    0.0225
    MIXING:  cpu time    0.0016: real time    0.0017
    OFIELD:  cpu time    0.0001: real time    0.0001

 ---------------------------------------------------------------------------------------------

         DFTD3 V3.0 Rev 1        
 IVDW         = 12
 DF pbe       
 parameters
 VDW_S6       =    1.0000
 VDW_S8       =    0.7875
 VDW_A1       =    0.4289
 VDW_A2       =    4.4407
 k1-k3        =   16.0000    1.3333   -4.0000
 VDW_RADIUS   =   50.2022 A
 VDW_CNRADIUS =   21.1671 A
 Edisp (eV)   -5.72023

 E6    (eV) :    -4.1449
 E8    (eV) :    -1.5754
 % E8        : 27.54
    FORVDW:  cpu time    0.4223: real time    0.4532

  FORCE on cell =-STRESS in cart. coord.  units (eV):
  Direction    XX          YY          ZZ          XY          YZ          ZX
  --------------------------------------------------------------------------------------
  Alpha Z   440.78660   440.78660   440.78660
  Ewald   -2435.56726  -839.02535 -2006.77008  1863.32285  -831.25034  1964.91081
  Hartree  1672.01474  2646.30406  1383.87878   762.43874  -128.65412  1080.08632
  E(xc)    -923.72456  -920.32994  -919.55227     6.32435    -3.89338     4.82362
  Local   -2049.00673 -4588.00935 -2128.79778 -2505.19581   865.80812 -2948.09741
  n-local  -517.36238  -526.48200  -527.90078   -10.97912     6.41027    -9.89530
  augment    71.79281    72.85234    72.40570    -0.70722     1.05147    -0.68875
  Kinetic  3746.29367  3718.52815  3690.67779  -115.66243    90.80376   -91.49099
  Fock        0.00000     0.00000     0.00000     0.00000     0.00000     0.00000
  vdW        -5.36024    -4.77488    -4.76591     0.49815    -0.26273     0.39829
  -------------------------------------------------------------------------------------
  Total      -0.13334    -0.15036    -0.03794     0.03952     0.01304     0.04658
  in kB      -0.32282    -0.36400    -0.09185     0.09566     0.03157     0.11276
  external pressure =       -0.26 kB  Pullay stress =        0.00 kB


 VOLUME and BASIS-vectors are now :
 -----------------------------------------------------------------------------
  energy-cutoff  :      520.00
  volume of cell :      661.81
      direct lattice vectors                 reciprocal lattice vectors
     7.677706124  0.046375988  2.179335837     0.130482975 -0.006932362 -0.000682978
     0.464544354  8.521953746  2.251697048    -0.001035446  0.117094968  0.001156064
     0.047623000 -0.099363322 10.106926504    -0.027905092 -0.024592486  0.098831760

  length of vectors
     7.981154475  8.826643569 10.107527115     0.130668783  0.117105253  0.105599248


 FORCES acting on ions
    electron-ion (+dipol)            ewald-force                    non-local-force                 convergence-correction
 -----------------------------------------------------------------------------------------------
   -.114E+03 -.361E+02 0.635E+01   0.114E+03 0.362E+02 -.713E+01   0.128E+00 -.140E-01 0.796E+00   -.494E-03 -.210E-03 0.210E-04
   0.114E+03 0.361E+02 -.636E+01   -.114E+03 -.362E+02 0.714E+01   -.127E+00 0.136E-01 -.795E+00   -.709E-03 -.705E-03 0.964E-04
   0.421E+02 0.491E+02 -.377E+01   -.450E+02 -.536E+02 0.119E+01   0.299E+01 0.456E+01 0.258E+01   -.342E-04 0.719E-05 -.342E-04
   -.421E+02 -.491E+02 0.377E+01   0.450E+02 0.536E+02 -.119E+01   -.299E+01 -.456E+01 -.258E+01   0.505E-05 0.207E-04 -.248E-04
   -.146E+01 -.125E+02 -.319E+02   0.185E+01 0.134E+02 0.378E+02   -.395E+00 -.819E+00 -.589E+01   0.533E-05 0.350E-05 0.122E-04
   0.146E+01 0.125E+02 0.319E+02   -.185E+01 -.134E+02 -.378E+02   0.395E+00 0.819E+00 0.589E+01   0.134E-04 -.866E-05 0.158E-04
   -.154E+02 -.375E+02 -.415E+02   0.180E+02 0.424E+02 0.437E+02   -.263E+01 -.494E+01 -.223E+01   0.169E-04 -.136E-04 0.231E-04
   0.154E+02 0.375E+02 0.415E+02   -.180E+02 -.424E+02 -.437E+02   0.263E+01 0.494E+01 0.223E+01   0.872E-05 -.169E-04 -.802E-06
   -.261E+02 -.268E+02 -.232E+02   0.287E+02 0.322E+02 0.237E+02   -.263E+01 -.539E+01 -.473E+00   0.344E-04 0.305E-04 0.344E-04
   0.261E+02 0.268E+02 0.232E+02   -.287E+02 -.322E+02 -.237E+02   0.263E+01 0.539E+01 0.474E+00   0.212E-04 -.155E-05 -.798E-05
   0.154E+02 0.459E+02 -.159E+02   -.180E+02 -.512E+02 0.150E+02   0.257E+01 0.531E+01 0.906E+00   0.242E-04 -.667E-05 0.277E-04
   -.155E+02 -.459E+02 0.159E+02   0.180E+02 0.512E+02 -.150E+02   -.257E+01 -.531E+01 -.906E+00   0.140E-04 0.141E-04 -.133E-05
   -.218E+02 -.507E+01 -.508E+02   0.262E+02 0.599E+01 0.547E+02   -.443E+01 -.925E+00 -.386E+01   -.243E-04 0.165E-05 0.915E-07
   0.218E+02 0.507E+01 0.508E+02   -.262E+02 -.599E+01 -.547E+02   0.443E+01 0.925E+00 0.386E+01   -.135E-04 -.496E-05 -.257E-04
   0.224E+02 0.281E+02 -.948E+01   -.253E+02 -.320E+02 0.129E+02   0.288E+01 0.389E+01 -.345E+01   0.397E-05 -.462E-05 0.330E-05
   -.224E+02 -.281E+02 0.949E+01   0.253E+02 0.320E+02 -.129E+02   -.288E+01 -.389E+01 0.345E+01   0.512E-04 0.414E-05 -.696E-05
   -.346E+01 0.375E+02 -.462E+02   0.521E+01 -.422E+02 0.494E+02   -.177E+01 0.469E+01 -.315E+01   -.108E-04 -.159E-04 -.945E-06
   0.346E+01 -.375E+02 0.462E+02   -.521E+01 0.422E+02 -.494E+02   0.177E+01 -.469E+01 0.315E+01   0.201E-05 0.594E-05 -.208E-04
   0.106E+03 0.124E+03 -.630E+02   -.108E+03 -.128E+03 0.649E+02   0.272E+01 0.412E+01 -.188E+01   -.117E-03 -.819E-04 -.434E-04
   -.106E+03 -.124E+03 0.630E+02   0.108E+03 0.128E+03 -.649E+02   -.272E+01 -.412E+01 0.188E+01   0.315E-04 0.426E-04 -.865E-04
   -.184E+02 0.180E+02 -.105E+03   0.207E+02 -.190E+02 0.109E+03   -.228E+01 0.945E+00 -.361E+01   0.197E-04 0.592E-04 0.241E-04
   0.184E+02 -.180E+02 0.105E+03   -.207E+02 0.190E+02 -.109E+03   0.228E+01 -.945E+00 0.361E+01   -.491E-04 -.142E-04 -.456E-04
   0.122E+02 -.296E+02 -.108E+03   -.121E+02 0.297E+02 0.110E+03   -.151E+00 -.888E-01 -.227E+01   -.640E-05 0.133E-04 0.928E-04
   -.122E+02 0.296E+02 0.108E+03   0.121E+02 -.297E+02 -.110E+03   0.151E+00 0.887E-01 0.227E+01   0.373E-04 -.258E-04 -.146E-04
   -.215E+02 -.756E+02 -.120E+03   0.227E+02 0.775E+02 0.122E+03   -.121E+01 -.200E+01 -.180E+01   0.309E-04 0.348E-04 0.965E-04
   0.215E+02 0.756E+02 0.120E+03   -.227E+02 -.775E+02 -.122E+03   0.121E+01 0.200E+01 0.180E+01   -.132E-05 -.465E-04 -.464E-04
   0.128E+02 0.724E+02 -.497E+02   -.137E+02 -.757E+02 0.501E+02   0.890E+00 0.338E+01 -.366E+00   -.306E-04 -.576E-04 0.641E-04
   -.128E+02 -.724E+02 0.497E+02   0.137E+02 0.757E+02 -.501E+02   -.890E+00 -.338E+01 0.366E+00   0.674E-04 0.346E-04 -.463E-04
   -.246E+02 0.641E+02 -.776E+02   0.244E+02 -.664E+02 0.811E+02   0.235E+00 0.232E+01 -.352E+01   -.313E-04 -.464E-05 0.197E-04
   0.246E+02 -.641E+02 0.776E+02   -.244E+02 0.664E+02 -.811E+02   -.235E+00 -.232E+01 0.352E+01   0.530E-04 0.659E-04 -.450E-04
   -.844E+02 -.570E+02 -.109E+03   0.883E+02 0.588E+02 0.112E+03   -.388E+01 -.180E+01 -.291E+01   0.489E-04 0.489E-04 0.110E-03
   0.844E+02 0.570E+02 0.109E+03   -.883E+02 -.588E+02 -.112E+03   0.387E+01 0.180E+01 0.291E+01   0.608E-05 -.511E-04 -.604E-04
   0.232E+02 0.109E+03 -.750E+02   -.236E+02 -.111E+03 0.753E+02   0.414E+00 0.236E+01 -.237E+00   0.963E-05 -.691E-04 0.765E-04
   -.232E+02 -.109E+03 0.750E+02   0.236E+02 0.111E+03 -.752E+02   -.414E+00 -.236E+01 0.237E+00   0.706E-04 0.504E-04 -.442E-04
   -.217E+02 -.351E+02 -.911E+02   0.231E+02 0.374E+02 0.935E+02   -.150E+01 -.232E+01 -.237E+01   -.144E-04 0.327E-04 0.361E-04
   0.217E+02 0.351E+02 0.911E+02   -.231E+02 -.374E+02 -.935E+02   0.150E+01 0.232E+01 0.238E+01   -.431E-04 -.305E-04 -.654E-04
   -.586E+02 -.445E+01 -.151E+03   0.605E+02 0.466E+01 0.153E+03   -.197E+01 -.217E+00 -.183E+01   -.226E-04 0.121E-04 0.718E-04
   0.586E+02 0.445E+01 0.151E+03   -.605E+02 -.467E+01 -.153E+03   0.197E+01 0.217E+00 0.183E+01   -.213E-04 -.181E-04 -.985E-04
   0.723E+02 0.667E+02 -.693E+02   -.731E+02 -.681E+02 0.708E+02   0.822E+00 0.144E+01 -.150E+01   -.524E-04 -.527E-04 0.278E-04
   -.723E+02 -.667E+02 0.693E+02   0.731E+02 0.681E+02 -.708E+02   -.822E+00 -.144E+01 0.150E+01   0.793E-04 0.135E-04 -.391E-04
   -.122E+02 0.856E+02 -.140E+03   0.129E+02 -.870E+02 0.141E+03   -.810E+00 0.143E+01 -.124E+01   -.291E-04 -.659E-04 0.583E-04
   0.122E+02 -.856E+02 0.140E+03   -.129E+02 0.870E+02 -.141E+03   0.810E+00 -.143E+01 0.124E+01   0.210E-04 0.252E-04 -.883E-04
   -.279E+02 -.500E+02 -.408E+02   0.202E+02 0.716E+02 0.260E+02   0.765E+01 -.216E+02 0.148E+02   -.335E-05 -.157E-04 0.128E-03
   0.279E+02 0.500E+02 0.408E+02   -.202E+02 -.716E+02 -.260E+02   -.765E+01 0.216E+02 -.148E+02   0.111E-04 -.717E-04 -.605E-04
   -.117E+03 -.104E+02 0.369E+02   0.141E+03 0.286E+02 -.358E+02   -.236E+02 -.183E+02 -.111E+01   -.870E-04 -.331E-04 -.225E-04
   0.117E+03 0.104E+02 -.369E+02   -.141E+03 -.287E+02 0.358E+02   0.236E+02 0.183E+02 0.111E+01   0.173E-04 0.557E-04 -.415E-05
   0.435E+02 0.563E+02 -.257E+02   -.453E+02 -.602E+02 -.128E+01   0.183E+01 0.390E+01 0.270E+02   -.155E-03 -.108E-03 -.352E-04
   -.435E+02 -.563E+02 0.257E+02   0.453E+02 0.602E+02 0.127E+01   -.183E+01 -.390E+01 -.270E+02   -.370E-04 0.259E-04 -.117E-03
   0.383E+02 -.453E+02 0.217E+03   -.685E+02 0.459E+02 -.244E+03   0.303E+02 -.539E+00 0.272E+02   0.248E-03 0.471E-04 0.189E-04
   -.382E+02 0.453E+02 -.217E+03   0.685E+02 -.459E+02 0.244E+03   -.303E+02 0.539E+00 -.272E+02   0.214E-03 -.107E-03 0.251E-03
   -.221E+02 -.341E+01 0.671E+02   0.202E+02 0.331E+01 -.654E+02   0.184E+01 0.106E+00 -.169E+01   0.507E-03 0.324E-04 0.268E-03
   0.220E+02 0.340E+01 -.671E+02   -.202E+02 -.330E+01 0.655E+02   -.185E+01 -.106E+00 0.169E+01   0.137E-02 -.306E-04 0.948E-03
   0.130E+03 0.167E+03 -.243E+03   -.142E+03 -.198E+03 0.275E+03   0.127E+02 0.303E+02 -.314E+02   0.500E-04 0.259E-03 -.212E-03
   -.130E+03 -.167E+03 0.243E+03   0.142E+03 0.198E+03 -.275E+03   -.127E+02 -.303E+02 0.314E+02   0.515E-04 0.125E-03 -.146E-03
   0.473E+02 -.370E+02 0.287E+02   -.393E+02 0.635E+02 -.563E+02   -.802E+01 -.265E+02 0.275E+02   -.200E-03 0.556E-04 -.927E-04
   -.473E+02 0.370E+02 -.287E+02   0.393E+02 -.635E+02 0.562E+02   0.802E+01 0.265E+02 -.275E+02   -.660E-04 0.724E-04 -.165E-03
   0.809E+02 0.504E+02 -.109E+03   -.803E+02 -.498E+02 0.109E+03   -.596E+00 -.624E+00 0.376E+00   0.157E-03 0.713E-03 -.691E-03
   -.809E+02 -.504E+02 0.109E+03   0.803E+02 0.497E+02 -.109E+03   0.600E+00 0.633E+00 -.385E+00   0.111E-03 0.326E-03 -.367E-03
   -.155E+03 0.277E+02 0.612E+00   0.194E+03 -.278E+02 0.208E+02   -.387E+02 0.152E+00 -.214E+02   0.845E-04 -.268E-04 0.128E-03
   0.155E+03 -.277E+02 -.590E+00   -.194E+03 0.278E+02 -.209E+02   0.387E+02 -.151E+00 0.214E+02   0.477E-03 -.613E-04 0.338E-03
 -----------------------------------------------------------------------------------------------
   0.172E-03 -.310E-02 0.257E-02   -.142E-12 -.853E-13 0.355E-14   -.174E-02 0.283E-02 -.287E-02   0.172E-02 0.271E-03 0.231E-03
 
 
 POSITION                                       TOTAL-FORCE (eV/Angst)
 -----------------------------------------------------------------------------------
      2.01793      7.41060      7.05534         0.004491     -0.017598     -0.005133
      6.17192      1.05833      7.48258        -0.004806      0.017741      0.004730
      5.90104      8.13112     12.49268        -0.001083      0.008951     -0.003147
      2.28880      0.33780      2.04531         0.001497     -0.008152      0.003133
      6.71169      1.92197      3.59219        -0.005190     -0.004282      0.011163
      1.47823      6.54696     10.94578         0.004948      0.004148     -0.011525
      7.78468      3.47225     12.15206        -0.013376      0.012937      0.000142
      0.40520      4.99668      2.38590         0.013367     -0.013005     -0.000206
      4.21240      6.60321      9.43112        -0.002959     -0.002580      0.016438
      3.97747      1.86578      5.10678         0.003275      0.003105     -0.016269
      2.08375      2.22101      8.89427         0.012997      0.011755      0.000958
      6.10615      6.24798      5.64375        -0.013102     -0.011757     -0.000952
      5.00445      4.73002     10.85552         0.022687     -0.004418      0.010198
      3.18544      3.73902      3.68243        -0.022526      0.004464     -0.010062
      5.92036      8.47912      4.86495         0.016176      0.003743     -0.003729
      2.26950     -0.01018      9.67303        -0.016020     -0.003660      0.003403
      3.91114      2.46018     10.57297        -0.000315     -0.000321     -0.002548
      4.27876      6.00884      3.96502         0.000065      0.000912      0.002075
      5.97251      0.43588     10.70527        -0.003594     -0.010461     -0.006002
      2.21733      8.03309      3.83269         0.003240      0.009385      0.005571
      7.68717      3.35119      9.36302         0.002492      0.000017      0.010174
      0.50270      5.11776      5.17494        -0.001912     -0.000323     -0.009446
      6.64826      1.77071      2.51642        -0.003503      0.004933      0.002441
      1.54161      6.69823     12.02154         0.003547     -0.005447     -0.002384
      7.29506      2.58587     11.75903         0.000816     -0.013756      0.008240
      0.89483      5.88305      2.77893        -0.000871      0.014040     -0.008195
      2.14540      4.29541      8.32043        -0.001898      0.007784      0.025176
      6.04447      4.17357      6.21755         0.001761     -0.007600     -0.025146
      1.09889      4.21069      7.26508        -0.007613      0.004713      0.013388
      7.09100      4.25825      7.27291         0.006806     -0.004116     -0.014628
      3.74545      5.62202      9.35191         0.001025      0.002217     -0.016012
      4.44443      2.84698      5.18604        -0.001464     -0.002214      0.015677
      2.55848      3.18343      9.06027        -0.001442      0.001134      0.000356
      5.63138      5.28558      5.47773         0.001956     -0.001620     -0.000147
      7.20856      2.37188     10.37822         0.001305      0.002997      0.006211
      0.98132      6.09705      4.15973        -0.000999     -0.002122     -0.005453
      4.19231      4.56447     10.14648        -0.005016      0.004669     -0.003004
      3.99757      3.90456      4.39149         0.004980     -0.005074      0.002910
      5.97205      0.67629      1.98333        -0.008757      0.008677      0.003793
      2.21780      7.79264     12.55462         0.009068     -0.007781     -0.002836
      3.58581      3.32103      9.99077        -0.009512     -0.003504     -0.004570
      4.60407      5.14800      4.54720         0.009839      0.002776      0.005417
      2.74630      5.50145      8.46434         0.015670     -0.004087     -0.002829
      5.44357      2.96753      6.07362        -0.015607      0.004321      0.002708
      1.27709      5.08087      6.26517         0.000501      0.001016      0.012952
      6.91279      3.38807      8.27280        -0.000602     -0.000986     -0.012879
      6.54954      1.30836      9.87165         0.005540     -0.010169     -0.012096
      1.64033      7.16061      4.66632        -0.006343      0.008899      0.011365
      4.09371      8.03652      6.35595         0.003376     -0.003437      0.005497
      4.09615      0.43247      8.18200        -0.010486      0.003128     -0.010216
      5.07075      8.07403      7.04269        -0.008796      0.005635      0.000135
      3.11902      0.39495      7.49519         0.025178     -0.004877      0.010154
      6.94095      5.75200     11.82724         0.000009      0.008933     -0.013287
      1.24893      2.71693      2.71075         0.003817      0.000357      0.003652
      7.58766      7.34807     10.19525         0.012423      0.000414     -0.010605
      0.60219      1.12086      4.34272        -0.009375      0.006916      0.003028
      7.26687      6.54116     11.02163        -0.012507     -0.011723      0.018951
      0.92303      1.92787      3.51623         0.005580     -0.005124     -0.001583
      6.08417      8.11661      7.64240         0.017693      0.011726     -0.001981
      2.10571      0.35236      6.89553        -0.026449     -0.012244     -0.003166
 -----------------------------------------------------------------------------------
    total drift:                                0.000157      0.000003     -0.000070


--------------------------------------------------------------------------------------------------------



  FREE ENERGIE OF THE ION-ELECTRON SYSTEM (eV)
  ---------------------------------------------------
  free  energy   TOTEN  =      -423.69297832 eV

  energy  without entropy=     -423.69297832  energy(sigma->0) =     -423.69297832
 


--------------------------------------------------------------------------------------------------------


    POTLOK:  cpu time    0.0663: real time    0.0664


--------------------------------------------------------------------------------------------------------


 stress matrix after NEB project (eV)
     -0.13334      0.03952      0.04658
      0.03952     -0.15036      0.01304
      0.04658      0.01304     -0.03794
  FORCES: max atom, RMS     0.029317    0.015584
  FORCE total and by dimension    0.120710    0.026449
  Stress total and by dimension    0.222777    0.150357
 writing wavefunctions
     LOOP+:  cpu time    8.7079: real time    9.0944
    4ORBIT:  cpu time    0.0000: real time    0.0000
 


 total charge     
 
# of ion       s       p       d       tot
------------------------------------------
    1        0.304   0.240   9.630  10.175
    2        0.304   0.240   9.630  10.175
    3        0.646   0.048   0.000   0.694
    4        0.646   0.048   0.000   0.694
    5        0.642   0.048   0.000   0.690
    6        0.642   0.048   0.000   0.690
    7        0.640   0.049   0.000   0.689
    8        0.640   0.049   0.000   0.689
    9        0.646   0.048   0.000   0.694
   10        0.646   0.048   0.000   0.694
   11        0.646   0.049   0.000   0.694
   12        0.646   0.049   0.000   0.694
   13        0.634   0.049   0.000   0.683
   14        0.634   0.049   0.000   0.683
   15        0.643   0.049   0.000   0.692
   16        0.643   0.049   0.000   0.692
   17        0.643   0.047   0.000   0.690
   18        0.643   0.047   0.000   0.690
   19        0.873   1.762   0.000   2.635
   20        0.873   1.762   0.000   2.635
   21        0.862   1.749   0.000   2.611
   22        0.862   1.749   0.000   2.611
   23        0.875   1.766   0.000   2.641
   24        0.875   1.766   0.000   2.641
   25        0.874   1.779   0.000   2.653
   26        0.874   1.779   0.000   2.653
   27        0.860   1.755   0.000   2.616
   28        0.860   1.755   0.000   2.616
   29        0.862   1.752   0.000   2.614
   30        0.862   1.752   0.000   2.614
   31        0.872   1.755   0.000   2.627
   32        0.872   1.755   0.000   2.627
   33        0.874   1.781   0.000   2.655
   34        0.874   1.781   0.000   2.655
   35        0.860   1.758   0.000   2.618
   36        0.860   1.758   0.000   2.618
   37        0.874   1.780   0.000   2.654
   38        0.874   1.780   0.000   2.654
   39        0.875   1.783   0.000   2.658
   40        0.875   1.783   0.000   2.658
   41        0.875   1.763   0.000   2.638
   42        0.875   1.763   0.000   2.638
   43        1.250   2.640   0.000   3.890
   44        1.250   2.640   0.000   3.890
   45        1.262   2.652   0.000   3.914
   46        1.262   2.652   0.000   3.914
   47        1.253   2.649   0.000   3.902
   48        1.253   2.649   0.000   3.902
   49        1.282   2.546   0.000   3.828
   50        1.282   2.546   0.000   3.828
   51        1.283   2.747   0.000   4.030
   52        1.283   2.747   0.000   4.030
   53        1.312   2.497   0.000   3.809
   54        1.312   2.497   0.000   3.809
   55        1.274   2.560   0.000   3.834
   56        1.274   2.560   0.000   3.834
   57        1.282   2.747   0.000   4.028
   58        1.282   2.747   0.000   4.028
   59        1.304   2.510   0.000   3.815
   60        1.304   2.510   0.000   3.815
--------------------------------------------------
tot         54.764  90.715  19.260 164.739
 

 total amount of memory used by VASP MPI-rank0    44361. kBytes
=======================================================================

   base      :      30000. kBytes
   nonl-proj :       2441. kBytes
   fftplans  :       2711. kBytes
   grid      :       5560. kBytes
   one-center:         46. kBytes
   wavefun   :       3603. kBytes
 
  
  
 General timing and accounting informations for this job:
 ========================================================
  
                  Total CPU time used (sec):       38.888
                            User time (sec):       17.360
                          System time (sec):       21.527
                         Elapsed time (sec):       40.769
  
                   Maximum memory used (kb):      213872.
                   Average memory used (kb):           0.
  
                          Minor page faults:        26061
                          Major page faults:            0
                 Voluntary context switches:         2247
