PROCAR lm decomposed
# of k-points:    4         # of bands:  144         # of ions:   60

 k-point     1 :    0.25000000 0.25000000 0.25000000     weight = 0.25000000

band     1 # energy  -21.90726300 # occ.  2.00000000
 
ion      s     py     pz     px    dxy    dyz    dz2    dxz  x2-y2    tot
    1  0.000  0.000  0.000  0.000  0.000  0.000  0.000  0.000  0.000  0.000
    2  0.000  0.000  0.000  0.000  0.000  0.000  0.000  0.000  0.000  0.000
    3  0.000  0.000  0.000  0.000  0.000  0.000  0.000  0.000  0.000  0.000
    4  0.000  0.000  0.000  0.000  0.000  0.000  0.000  0.000  0.000  0.000
    5  0.000  0.000  0.000  0.000  0.000  0.000  0.000  0.000  0.000  0.000
    6  0.000  0.000  0.000  0.000  0.000  0.000  0.000  0.000  0.000  0.000
    7  0.000  0.000  0.000  0.000  0.000  0.000  0.000  0.000  0.000  0.000
    8  0.000  0.000  0.000  0.000  0.000  0.000  0.000  0.000  0.000  0.000
    9  0.000  0.000  0.000  0.000  0.000  0.000  0.000  0.000  0.000  0.000
   10  0.000  0.000  0.000  0.000  0.000  0.000  0.000  0.000  0.000  0.000
   11  0.000  0.000  0.000  0.000  0.000  0.000  0.000  0.000  0.000  0.000
   12  0.000  0.000  0.000  0.000  0.000  0.000  0.000  0.000  0.000  0.000
   13  0.000  0.000  0.000  0.000  0.000  0.000  0.000  0.000  0.000  0.000
   14  0.000  0.000  0.000  0.000  0.000  0.000  0.000  0.000  0.000  0.000
   15  0.000  0.000  0.000  0.000  0.000  0.000  0.000  0.000  0.000  0.000
   16  0.000  0.000  0.000  0.000  0.000  0.000  0.000  0.000  0.000  0.000
   17  0.000  0.000  0.000  0.000  0.000  0.000  0.000  0.000  0.000  0.000
   18  0.000  0.000  0.000  0.000  0.000  0.000  0.000  0.000  0.000  0.000
   19  0.000  0.000  0.000  0.000  0.000  0.000  0.000  0.000  0.000  0.000
   20  0.000  0.000  0.000  0.000  0.000  0.000  0.000  0.000  0.000  0.000
   21  0.000  0.000  0.000  0.000  0.000  0.000  0.000  0.000  0.000  0.000
   22  0.000  0.000  0.000  0.000  0.000  0.000  0.000  0.000  0.000  0.000
   23  0.000  0.000  0.000  0.000  0.000  0.000  0.000  0.000  0.000  0.000
   24  0.000  0.000  0.000  0.000  0.000  0.000  0.000  0.000  0.000  0.000
   25  0.000  0.000  0.000  0.000  0.000  0.000  0.000  0.000  0.000  0.000
   26  0.000  0.000  0.000  0.000  0.000  0.000  0.000  0.000  0.000  0.000
   27  0.000  0.000  0.000  0.000  0.000  0.000  0.000  0.000  0.000  0.000
   28  0.000  0.000  0.000  0.000  0.000  0.000  0.000  0.000  0.000  0.000
   29  0.000  0.000  0.000  0.000  0.000  0.000  0.000  0.000  0.000  0.000
   30  0.000  0.000  0.000  0.000  0.000  0.000  0.000  0.000  0.000  0.000
   31  0.000  0.000  0.000  0.000  0.000  0.000  0.000  0.000  0.000  0.000
   32  0.000  0.000  0.000  0.000  0.000  0.000  0.000  0.000  0.000  0.000
   33  0.000  0.000  0.000  0.000  0.000  0.000  0.000  0.000  0.000  0.000
   34  0.000  0.000  0.000  0.000  0.000  0.000  0.000  0.000  0.000  0.000
   35  0.000  0.000  0.000  0.000  0.000  0.000  0.000  0.000  0.000  0.000
   36  0.000  0.000  0.000  0.000  0.000  0.000  0.000  0.000  0.000  0.000
   37  0.000  0.000  0.000  0.000  0.000  0.000  0.000  0.000  0.000  0.000
   38  0.000  0.000  0.000  0.000  0.000  0.000  0.000  0.000  0.000  0.000
   39  0.000  0.000  0.000  0.000  0.000  0.000  0.000  0.000  0.000  0.000
   40  0.000  0.000  0.000  0.000  0.000  0.000  0.000  0.000  0.000  0.000
   41  0.000  0.000  0.000  0.000  0.000  0.000  0.000  0.000  0.000  0.000
   42  0.000  0.000  0.000  0.000  0.000  0.000  0.000  0.000  0.000  0.000
   43  0.000  0.000  0.000  0.000  0.000  0.000  0.000  0.000  0.000  0.000
   44  0.000  0.000  0.000  0.000  0.000  0.000  0.000  0.000  0.000  0.000
   45  0.000  0.000  0.000  0.000  0.000  0.000  0.000  0.000  0.000  0.000
   46  0.000  0.000  0.000  0.000  0.000  0.000  0.000  0.000  0.000  0.000
   47  0.000  0.000  0.000  0.000  0.000  0.000  0.000  0.000  0.000  0.000
   48  0.000  0.000  0.000  0.000  0.000  0.000  0.000  0.000  0.000  0.000
   49  0.068  0.000  0.010  0.019  0.000  0.000  0.000  0.000  0.000  0.096
   50  0.068  0.000  0.010  0.019  0.000  0.000  0.000  0.000  0.000  0.097
   51  0.263  0.000  0.000  0.000  0.000  0.000  0.000  0.000  0.000  0.263
   52  0.264  0.000  0.000  0.000  0.000  0.000  0.000  0.000  0.000  0.264
   53  0.001  0.000  0.000  0.000  0.000  0.000  0.000  0.000  0.000  0.001
   54  0.001  0.000  0.000  0.000  0.000  0.000  0.000  0.000  0.000  0.001
   55  0.001  0.000  0.000  0.000  0.000  0.000  0.000  0.000  0.000  0.001
   56  0.001  0.000  0.000  0.000  0.000  0.000  0.000  0.000  0.000  0.001
   57  0.003  0.000  0.000  0.000  0.000  0.000  0.000  0.000  0.000  0.003
   58  0.003  0.000  0.000  0.000  0.000  0.000  0.000  0.000  0.000  0.003
   59  0.077  0.000  0.009  0.025  0.000  0.000  0.000  0.000  0.000  0.111
   60  0.078  0.000  0.009  0.025  0.000  0.000  0.000  0.000  0.000  0.112
tot    0.827  0.001  0.038  0.089  0.000  0.000  0.000  0.000  0.000  0.956
 
band     2 # energy  -21.84463413 # occ.  2.00000000
 
ion      s     py     pz     px    dxy    dyz    dz2    dxz  x2-y2    tot
    1  0.000  0.000  0.000  0.000  0.000  0.000  0.000  0.000  0.000  0.000
    2  0.000  0.000  0.000  0.000  0.000  0.000  0.000  0.000  0.000  0.000
    3  0.000  0.000  0.000  0.000  0.000  0.000  0.000  0.000  0.000  0.000
    4  0.000  0.000  0.000  0.000  0.000  0.000  0.000  0.000  0.000  0.000
    5  0.000  0.000  0.000  0.000  0.000  0.000  0.000  0.000  0.000  0.000
    6  0.000  0.000  0.000  0.000  0.000  0.000  0.000  0.000  0.000  0.000
    7  0.000  0.000  0.000  0.000  0.000  0.000  0.000  0.000  0.000  0.000
    8  0.000  0.000  0.000  0.000  0.000  0.000  0.000  0.000  0.000  0.000
    9  0.000  0.000  0.000  0.000  0.000  0.000  0.000  0.000  0.000  0.000
   10  0.000  0.000  0.000  0.000  0.000  0.000  0.000  0.000  0.000  0.000
   11  0.000  0.000  0.000  0.000  0.000  0.000  0.000  0.000  0.000  0.000
   12  0.000  0.000  0.000  0.000  0.000  0.000  0.000  0.000  0.000  0.000
   13  0.000  0.000  0.000  0.000  0.000  0.000  0.000  0.000  0.000  0.000
   14  0.000  0.000  0.000  0.000  0.000  0.000  0.000  0.000  0.000  0.000
   15  0.000  0.000  0.000  0.000  0.000  0.000  0.000  0.000  0.000  0.000
   16  0.000  0.000  0.000  0.000  0.000  0.000  0.000  0.000  0.000  0.000
   17  0.000  0.000  0.000  0.000  0.000  0.000  0.000  0.000  0.000  0.000
   18  0.000  0.000  0.000  0.000  0.000  0.000  0.000  0.000  0.000  0.000
   19  0.000  0.000  0.000  0.000  0.000  0.000  0.000  0.000  0.000  0.000
   20  0.000  0.000  0.000  0.000  0.000  0.000  0.000  0.000  0.000  0.000
   21  0.000  0.000  0.000  0.000  0.000  0.000  0.000  0.000  0.000  0.000
   22  0.000  0.000  0.000  0.000  0.000  0.000  0.000  0.000  0.000  0.000
   23  0.000  0.000  0.000  0.000  0.000  0.000  0.000  0.000  0.000  0.000
   24  0.000  0.000  0.000  0.000  0.000  0.000  0.000  0.000  0.000  0.000
   25  0.000  0.000  0.000  0.000  0.000  0.000  0.000  0.000  0.000  0.000
   26  0.000  0.000  0.000  0.000  0.000  0.000  0.000  0.000  0.000  0.000
   27  0.000  0.000  0.000  0.000  0.000  0.000  0.000  0.000  0.000  0.000
   28  0.000  0.000  0.000  0.000  0.000  0.000  0.000  0.000  0.000  0.000
   29  0.000  0.000  0.000  0.000  0.000  0.000  0.000  0.000  0.000  0.000
   30  0.000  0.000  0.000  0.000  0.000  0.000  0.000  0.000  0.000  0.000
   31  0.000  0.000  0.000  0.000  0.000  0.000  0.000  0.000  0.000  0.000
   32  0.000  0.000  0.000  0.000  0.000  0.000  0.000  0.000  0.000  0.000
   33  0.000  0.000  0.000  0.000  0.000  0.000  0.000  0.000  0.000  0.000
   34  0.000  0.000  0.000  0.000  0.000  0.000  0.000  0.000  0.000  0.000
   35  0.000  0.000  0.000  0.000  0.000  0.000  0.000  0.000  0.000  0.000
   36  0.000  0.000  0.000  0.000  0.000  0.000  0.000  0.000  0.000  0.000
   37  0.000  0.000  0.000  0.000  0.000  0.000  0.000  0.000  0.000  0.000
   38  0.000  0.000  0.000  0.000  0.000  0.000  0.000  0.000  0.000  0.000
   39  0.000  0.000  0.000  0.000  0.000  0.000  0.000  0.000  0.000  0.000
   40  0.000  0.000  0.000  0.000  0.000  0.000  0.000  0.000  0.000  0.000
   41  0.000  0.000  0.000  0.000  0.000  0.000  0.000  0.000  0.000  0.000
   42  0.000  0.000  0.000  0.000  0.000  0.000  0.000  0.000  0.000  0.000
   43  0.000  0.000  0.000  0.000  0.000  0.000  0.000  0.000  0.000  0.000
   44  0.000  0.000  0.000  0.000  0.000  0.000  0.000  0.000  0.000  0.000
   45  0.000  0.000  0.000  0.000  0.000  0.000  0.000  0.000  0.000  0.000
   46  0.000  0.000  0.000  0.000  0.000  0.000  0.000  0.000  0.000  0.000
   47  0.000  0.000  0.000  0.000  0.000  0.000  0.000  0.000  0.000  0.000
   48  0.000  0.000  0.000  0.000  0.000  0.000  0.000  0.000  0.000  0.000
   49  0.001  0.000  0.000  0.000  0.000  0.000  0.000  0.000  0.000  0.001
   50  0.001  0.000  0.000  0.000  0.000  0.000  0.000  0.000  0.000  0.002
   51  0.004  0.000  0.000  0.000  0.000  0.000  0.000  0.000  0.000  0.004
   52  0.005  0.000  0.000  0.000  0.000  0.000  0.000  0.000  0.000  0.005
   53  0.065  0.013  0.014  0.002  0.000  0.000  0.000  0.000  0.000  0.094
   54  0.095  0.019  0.020  0.003  0.000  0.000  0.000  0.000  0.000  0.137
   55  0.054  0.010  0.011  0.001  0.000  0.000  0.000  0.000  0.000  0.076
   56  0.078  0.015  0.016  0.002  0.000  0.000  0.000  0.000  0.000  0.110
   57  0.214  0.000  0.000  0.000  0.000  0.000  0.000  0.000  0.000  0.214
   58  0.311  0.000  0.000  0.000  0.000  0.000  0.000  0.000  0.000  0.312
   59  0.001  0.000  0.000  0.000  0.000  0.000  0.000  0.000  0.000  0.002
   60  0.002  0.000  0.000  0.001  0.000  0.000  0.000  0.000  0.000  0.002
tot    0.831  0.057  0.061  0.011  0.000  0.000  0.000  0.000  0.000  0.961
 
band     3 # energy  -21.84136105 # occ.  2.00000000
 
ion      s     py     pz     px    dxy    dyz    dz2    dxz  x2-y2    tot
    1  0.000  0.000  0.000  0.000  0.000  0.000  0.000  0.000  0.000  0.000
    2  0.000  0.000  0.000  0.000  0.000  0.000  0.000  0.000  0.000  0.000
    3  0.000  0.000  0.000  0.000  0.000  0.000  0.000  0.000  0.000  0.000
    4  0.000  0.000  0.000  0.000  0.000  0.000  0.000  0.000  0.000  0.000
    5  0.000  0.000  0.000  0.000  0.000  0.000  0.000  0.000  0.000  0.000
    6  0.000  0.000  0.000  0.000  0.000  0.000  0.000  0.000  0.000  0.000
    7  0.000  0.000  0.000  0.000  0.000  0.000  0.000  0.000  0.000  0.000
    8  0.000  0.000  0.000  0.000  0.000  0.000  0.000  0.000  0.000  0.000
    9  0.000  0.000  0.000  0.000  0.000  0.000  0.000  0.000  0.000  0.000
   10  0.000  0.000  0.000  0.000  0.000  0.000  0.000  0.000  0.000  0.000
   11  0.000  0.000  0.000  0.000  0.000  0.000  0.000  0.000  0.000  0.000
   12  0.000  0.000  0.000  0.000  0.000  0.000  0.000  0.000  0.000  0.000
   13  0.000  0.000  0.000  0.000  0.000  0.000  0.000  0.000  0.000  0.000
   14  0.000  0.000  0.000  0.000  0.000  0.000  0.000  0.000  0.000  0.000
   15  0.000  0.000  0.000  0.000  0.000  0.000  0.000  0.000  0.000  0.000
   16  0.000  0.000  0.000  0.000  0.000  0.000  0.000  0.000  0.000  0.000
   17  0.000  0.000  0.000  0.000  0.000  0.000  0.000  0.000  0.000  0.000
   18  0.000  0.000  0.000  0.000  0.000  0.000  0.000  0.000  0.000  0.000
   19  0.000  0.000  0.000  0.000  0.000  0.000  0.000  0.000  0.000  0.000
   20  0.000  0.000  0.000  0.000  0.000  0.000  0.000  0.000  0.000  0.000
   21  0.000  0.000  0.000  0.000  0.000  0.000  0.000  0.000  0.000  0.000
   22  0.000  0.000  0.000  0.000  0.000  0.000  0.000  0.000  0.000  0.000
   23  0.000  0.000  0.000  0.000  0.000  0.000  0.000  0.000  0.000  0.000
   24  0.000  0.000  0.000  0.000  0.000  0.000  0.000  0.000  0.000  0.000
   25  0.000  0.000  0.000  0.000  0.000  0.000  0.000  0.000  0.000  0.000
   26  0.000  0.000  0.000  0.000  0.000  0.000  0.000  0.000  0.000  0.000
   27  0.000  0.000  0.000  0.000  0.000  0.000  0.000  0.000  0.000  0.000
   28  0.000  0.000  0.000  0.000  0.000  0.000  0.000  0.000  0.000  0.000
   29  0.000  0.000  0.000  0.000  0.000  0.000  0.000  0.000  0.000  0.000
   30  0.000  0.000  0.000  0.000  0.000  0.000  0.000  0.000  0.000  0.000
   31  0.000  0.000  0.000  0.000  0.000  0.000  0.000  0.000  0.000  0.000
   32  0.000  0.000  0.000  0.000  0.000  0.000  0.000  0.000  0.000  0.000
   33  0.000  0.000  0.000  0.000  0.000  0.000  0.000  0.000  0.000  0.000
   34  0.000  0.000  0.000  0.000  0.000  0.000  0.000  0.000  0.000  0.000
   35  0.000  0.000  0.000  0.000  0.000  0.000  0.000  0.000  0.000  0.000
   36  0.000  0.000  0.000  0.000  0.000  0.000  0.000  0.000  0.000  0.000
   37  0.000  0.000  0.000  0.000  0.000  0.000  0.000  0.000  0.000  0.000
   38  0.000  0.000  0.000  0.000  0.000  0.000  0.000  0.000  0.000  0.000
   39  0.000  0.000  0.000  0.000  0.000  0.000  0.000  0.000  0.000  0.000
   40  0.000  0.000  0.000  0.000  0.000  0.000  0.000  0.000  0.000  0.000
   41  0.000  0.000  0.000  0.000  0.000  0.000  0.000  0.000  0.000  0.000
   42  0.000  0.000  0.000  0.000  0.000  0.000  0.000  0.000  0.000  0.000
   43  0.000  0.000  0.000  0.000  0.000  0.000  0.000  0.000  0.000  0.000
   44  0.000  0.000  0.000  0.000  0.000  0.000  0.000  0.000  0.000  0.000
   45  0.000  0.000  0.000  0.000  0.000  0.000  0.000  0.000  0.000  0.000
   46  0.000  0.000  0.000  0.000  0.000  0.000  0.000  0.000  0.000  0.000
   47  0.000  0.000  0.000  0.000  0.000  0.000  0.000  0.000  0.000  0.000
   48  0.000  0.000  0.000  0.000  0.000  0.000  0.000  0.000  0.000  0.000
   49  0.006  0.000  0.001  0.002  0.000  0.000  0.000  0.000  0.000  0.008
   50  0.005  0.000  0.001  0.001  0.000  0.000  0.000  0.000  0.000  0.007
   51  0.021  0.000  0.000  0.000  0.000  0.000  0.000  0.000  0.000  0.021
   52  0.019  0.000  0.000  0.000  0.000  0.000  0.000  0.000  0.000  0.019
   53  0.090  0.018  0.019  0.003  0.000  0.000  0.000  0.000  0.000  0.130
   54  0.061  0.012  0.013  0.002  0.000  0.000  0.000  0.000  0.000  0.088
   55  0.073  0.014  0.015  0.002  0.000  0.000  0.000  0.000  0.000  0.104
   56  0.050  0.010  0.010  0.001  0.000  0.000  0.000  0.000  0.000  0.071
   57  0.294  0.000  0.000  0.000  0.000  0.000  0.000  0.000  0.000  0.295
   58  0.200  0.000  0.000  0.000  0.000  0.000  0.000  0.000  0.000  0.201
   59  0.006  0.000  0.001  0.002  0.000  0.000  0.000  0.000  0.000  0.009
   60  0.005  0.000  0.001  0.002  0.000  0.000  0.000  0.000  0.000  0.008
tot    0.831  0.054  0.060  0.016  0.000  0.000  0.000  0.000  0.000  0.961
 
band     4 # energy  -21.83754864 # occ.  2.00000000
 
ion      s     py     pz     px    dxy    dyz    dz2    dxz  x2-y2    tot
    1  0.000  0.000  0.000  0.000  0.000  0.000  0.000  0.000  0.000  0.000
    2  0.000  0.000  0.000  0.000  0.000  0.000  0.000  0.000  0.000  0.000
    3  0.000  0.000  0.000  0.000  0.000  0.000  0.000  0.000  0.000  0.000
    4  0.000  0.000  0.000  0.000  0.000  0.000  0.000  0.000  0.000  0.000
    5  0.000  0.000  0.000  0.000  0.000  0.000  0.000  0.000  0.000  0.000
    6  0.000  0.000  0.000  0.000  0.000  0.000  0.000  0.000  0.000  0.000
    7  0.000  0.000  0.000  0.000  0.000  0.000  0.000  0.000  0.000  0.000
    8  0.000  0.000  0.000  0.000  0.000  0.000  0.000  0.000  0.000  0.000
    9  0.000  0.000  0.000  0.000  0.000  0.000  0.000  0.000  0.000  0.000
   10  0.000  0.000  0.000  0.000  0.000  0.000  0.000  0.000  0.000  0.000
   11  0.000  0.000  0.000  0.000  0.000  0.000  0.000  0.000  0.000  0.000
   12  0.000  0.000  0.000  0.000  0.000  0.000  0.000  0.000  0.000  0.000
   13  0.000  0.000  0.000  0.000  0.000  0.000  0.000  0.000  0.000  0.000
   14  0.000  0.000  0.000  0.000  0.000  0.000  0.000  0.000  0.000  0.000
   15  0.000  0.000  0.000  0.000  0.000  0.000  0.000  0.000  0.000  0.000
   16  0.000  0.000  0.000  0.000  0.000  0.000  0.000  0.000  0.000  0.000
   17  0.000  0.000  0.000  0.000  0.000  0.000  0.000  0.000  0.000  0.000
   18  0.000  0.000  0.000  0.000  0.000  0.000  0.000  0.000  0.000  0.000
   19  0.000  0.000  0.000  0.000  0.000  0.000  0.000  0.000  0.000  0.000
   20  0.000  0.000  0.000  0.000  0.000  0.000  0.000  0.000  0.000  0.000
   21  0.000  0.000  0.000  0.000  0.000  0.000  0.000  0.000  0.000  0.000
   22  0.000  0.000  0.000  0.000  0.000  0.000  0.000  0.000  0.000  0.000
   23  0.000  0.000  0.000  0.000  0.000  0.000  0.000  0.000  0.000  0.000
   24  0.000  0.000  0.000  0.000  0.000  0.000  0.000  0.000  0.000  0.000
   25  0.000  0.000  0.000  0.000  0.000  0.000  0.000  0.000  0.000  0.000
   26  0.000  0.000  0.000  0.000  0.000  0.000  0.000  0.000  0.000  0.000
   27  0.000  0.000  0.000  0.000  0.000  0.000  0.000  0.000  0.000  0.000
   28  0.000  0.000  0.000  0.000  0.000  0.000  0.000  0.000  0.000  0.000
   29  0.000  0.000  0.000  0.000  0.000  0.000  0.000  0.000  0.000  0.000
   30  0.000  0.000  0.000  0.000  0.000  0.000  0.000  0.000  0.000  0.000
   31  0.000  0.000  0.000  0.000  0.000  0.000  0.000  0.000  0.000  0.000
   32  0.000  0.000  0.000  0.000  0.000  0.000  0.000  0.000  0.000  0.000
   33  0.000  0.000  0.000  0.000  0.000  0.000  0.000  0.000  0.000  0.000
   34  0.000  0.000  0.000  0.000  0.000  0.000  0.000  0.000  0.000  0.000
   35  0.000  0.000  0.000  0.000  0.000  0.000  0.000  0.000  0.000  0.000
   36  0.000  0.000  0.000  0.000  0.000  0.000  0.000  0.000  0.000  0.000
   37  0.000  0.000  0.000  0.000  0.000  0.000  0.000  0.000  0.000  0.000
   38  0.000  0.000  0.000  0.000  0.000  0.000  0.000  0.000  0.000  0.000
   39  0.000  0.000  0.000  0.000  0.000  0.000  0.000  0.000  0.000  0.000
   40  0.000  0.000  0.000  0.000  0.000  0.000  0.000  0.000  0.000  0.000
   41  0.000  0.000  0.000  0.000  0.000  0.000  0.000  0.000  0.000  0.000
   42  0.000  0.000  0.000  0.000  0.000  0.000  0.000  0.000  0.000  0.000
   43  0.000  0.000  0.000  0.000  0.000  0.000  0.000  0.000  0.000  0.000
   44  0.000  0.000  0.000  0.000  0.000  0.000  0.000  0.000  0.000  0.000
   45  0.000  0.000  0.000  0.000  0.000  0.000  0.000  0.000  0.000  0.000
   46  0.000  0.000  0.000  0.000  0.000  0.000  0.000  0.000  0.000  0.000
   47  0.000  0.000  0.000  0.000  0.000  0.000  0.000  0.000  0.000  0.000
   48  0.000  0.000  0.000  0.000  0.000  0.000  0.000  0.000  0.000  0.000
   49  0.064  0.000  0.009  0.018  0.000  0.000  0.000  0.000  0.000  0.091
   50  0.063  0.000  0.009  0.018  0.000  0.000  0.000  0.000  0.000  0.091
   51  0.247  0.000  0.000  0.000  0.000  0.000  0.000  0.000  0.000  0.247
   52  0.246  0.000  0.000  0.000  0.000  0.000  0.000  0.000  0.000  0.247
   53  0.007  0.001  0.002  0.000  0.000  0.000  0.000  0.000  0.000  0.010
   54  0.006  0.001  0.001  0.000  0.000  0.000  0.000  0.000  0.000  0.009
   55  0.006  0.001  0.001  0.000  0.000  0.000  0.000  0.000  0.000  0.008
   56  0.005  0.001  0.001  0.000  0.000  0.000  0.000  0.000  0.000  0.007
   57  0.023  0.000  0.000  0.000  0.000  0.000  0.000  0.000  0.000  0.023
   58  0.020  0.000  0.000  0.000  0.000  0.000  0.000  0.000  0.000  0.020
   59  0.072  0.000  0.008  0.024  0.000  0.000  0.000  0.000  0.000  0.104
   60  0.072  0.000  0.008  0.024  0.000  0.000  0.000  0.000  0.000  0.104
tot    0.832  0.005  0.040  0.085  0.000  0.000  0.000  0.000  0.000  0.962
 
band     5 # energy  -20.08879391 # occ.  2.00000000
 
ion      s     py     pz     px    dxy    dyz    dz2    dxz  x2-y2    tot
    1  0.000  0.000  0.000  0.000  0.000  0.000  0.000  0.000  0.000  0.000
    2  0.000  0.000  0.000  0.000  0.000  0.000  0.000  0.000  0.000  0.000
    3  0.000  0.000  0.000  0.000  0.000  0.000  0.000  0.000  0.000  0.000
    4  0.000  0.000  0.000  0.000  0.000  0.000  0.000  0.000  0.000  0.000
    5  0.000  0.000  0.000  0.000  0.000  0.000  0.000  0.000  0.000  0.000
    6  0.000  0.000  0.000  0.000  0.000  0.000  0.000  0.000  0.000  0.000
    7  0.000  0.000  0.000  0.000  0.000  0.000  0.000  0.000  0.000  0.000
    8  0.000  0.000  0.000  0.000  0.000  0.000  0.000  0.000  0.000  0.000
    9  0.000  0.000  0.000  0.000  0.000  0.000  0.000  0.000  0.000  0.000
   10  0.000  0.000  0.000  0.000  0.000  0.000  0.000  0.000  0.000  0.000
   11  0.000  0.000  0.000  0.000  0.000  0.000  0.000  0.000  0.000  0.000
   12  0.000  0.000  0.000  0.000  0.000  0.000  0.000  0.000  0.000  0.000
   13  0.000  0.000  0.000  0.000  0.000  0.000  0.000  0.000  0.000  0.000
   14  0.000  0.000  0.000  0.000  0.000  0.000  0.000  0.000  0.000  0.000
   15  0.000  0.000  0.000  0.000  0.000  0.000  0.000  0.000  0.000  0.000
   16  0.000  0.000  0.000  0.000  0.000  0.000  0.000  0.000  0.000  0.000
   17  0.000  0.000  0.000  0.000  0.000  0.000  0.000  0.000  0.000  0.000
   18  0.000  0.000  0.000  0.000  0.000  0.000  0.000  0.000  0.000  0.000
   19  0.001  0.000  0.000  0.000  0.000  0.000  0.000  0.000  0.000  0.001
   20  0.001  0.000  0.000  0.000  0.000  0.000  0.000  0.000  0.000  0.001
   21  0.067  0.001  0.008  0.001  0.000  0.000  0.000  0.000  0.000  0.077
   22  0.067  0.001  0.008  0.001  0.000  0.000  0.000  0.000  0.000  0.077
   23  0.000  0.000  0.000  0.000  0.000  0.000  0.000  0.000  0.000  0.000
   24  0.000  0.000  0.000  0.000  0.000  0.000  0.000  0.000  0.000  0.000
   25  0.001  0.000  0.000  0.000  0.000  0.000  0.000  0.000  0.000  0.001
   26  0.001  0.000  0.000  0.000  0.000  0.000  0.000  0.000  0.000  0.001
   27  0.009  0.000  0.000  0.000  0.000  0.000  0.000  0.000  0.000  0.009
   28  0.009  0.000  0.000  0.000  0.000  0.000  0.000  0.000  0.000  0.009
   29  0.067  0.002  0.008  0.001  0.000  0.000  0.000  0.000  0.000  0.077
   30  0.067  0.002  0.008  0.001  0.000  0.000  0.000  0.000  0.000  0.077
   31  0.001  0.000  0.000  0.000  0.000  0.000  0.000  0.000  0.000  0.002
   32  0.001  0.000  0.000  0.000  0.000  0.000  0.000  0.000  0.000  0.002
   33  0.001  0.000  0.000  0.000  0.000  0.000  0.000  0.000  0.000  0.001
   34  0.001  0.000  0.000  0.000  0.000  0.000  0.000  0.000  0.000  0.001
   35  0.009  0.000  0.001  0.000  0.000  0.000  0.000  0.000  0.000  0.009
   36  0.009  0.000  0.001  0.000  0.000  0.000  0.000  0.000  0.000  0.009
   37  0.000  0.000  0.000  0.000  0.000  0.000  0.000  0.000  0.000  0.000
   38  0.000  0.000  0.000  0.000  0.000  0.000  0.000  0.000  0.000  0.000
   39  0.000  0.000  0.000  0.000  0.000  0.000  0.000  0.000  0.000  0.000
   40  0.000  0.000  0.000  0.000  0.000  0.000  0.000  0.000  0.000  0.000
   41  0.000  0.000  0.000  0.000  0.000  0.000  0.000  0.000  0.000  0.000
   42  0.000  0.000  0.000  0.000  0.000  0.000  0.000  0.000  0.000  0.000
   43  0.008  0.001  0.000  0.000  0.000  0.000  0.000  0.000  0.000  0.009
   44  0.008  0.001  0.000  0.000  0.000  0.000  0.000  0.000  0.000  0.009
   45  0.165  0.007  0.000  0.009  0.000  0.000  0.000  0.000  0.000  0.181
   46  0.165  0.007  0.000  0.009  0.000  0.000  0.000  0.000  0.000  0.181
   47  0.008  0.000  0.000  0.000  0.000  0.000  0.000  0.000  0.000  0.009
   48  0.008  0.000  0.000  0.000  0.000  0.000  0.000  0.000  0.000  0.009
   49  0.000  0.000  0.000  0.000  0.000  0.000  0.000  0.000  0.000  0.000
   50  0.000  0.000  0.000  0.000  0.000  0.000  0.000  0.000  0.000  0.000
   51  0.000  0.000  0.000  0.000  0.000  0.000  0.000  0.000  0.000  0.000
   52  0.000  0.000  0.000  0.000  0.000  0.000  0.000  0.000  0.000  0.000
   53  0.000  0.000  0.000  0.000  0.000  0.000  0.000  0.000  0.000  0.000
   54  0.000  0.000  0.000  0.000  0.000  0.000  0.000  0.000  0.000  0.000
   55  0.000  0.000  0.000  0.000  0.000  0.000  0.000  0.000  0.000  0.000
   56  0.000  0.000  0.000  0.000  0.000  0.000  0.000  0.000  0.000  0.000
   57  0.000  0.000  0.000  0.000  0.000  0.000  0.000  0.000  0.000  0.000
   58  0.000  0.000  0.000  0.000  0.000  0.000  0.000  0.000  0.000  0.000
   59  0.000  0.000  0.000  0.000  0.000  0.000  0.000  0.000  0.000  0.000
   60  0.000  0.000  0.000  0.000  0.000  0.000  0.000  0.000  0.000  0.000
tot    0.672  0.023  0.037  0.023  0.000  0.000  0.000  0.000  0.000  0.755
 
band     6 # energy  -18.96017588 # occ.  2.00000000
 
ion      s     py     pz     px    dxy    dyz    dz2    dxz  x2-y2    tot
    1  0.000  0.000  0.000  0.000  0.000  0.000  0.000  0.000  0.000  0.001
    2  0.000  0.000  0.000  0.000  0.000  0.000  0.000  0.000  0.000  0.001
    3  0.000  0.000  0.000  0.000  0.000  0.000  0.000  0.000  0.000  0.000
    4  0.000  0.000  0.000  0.000  0.000  0.000  0.000  0.000  0.000  0.000
    5  0.000  0.000  0.000  0.000  0.000  0.000  0.000  0.000  0.000  0.000
    6  0.000  0.000  0.000  0.000  0.000  0.000  0.000  0.000  0.000  0.000
    7  0.000  0.000  0.000  0.000  0.000  0.000  0.000  0.000  0.000  0.000
    8  0.000  0.000  0.000  0.000  0.000  0.000  0.000  0.000  0.000  0.000
    9  0.001  0.000  0.000  0.000  0.000  0.000  0.000  0.000  0.000  0.001
   10  0.001  0.000  0.000  0.000  0.000  0.000  0.000  0.000  0.000  0.001
   11  0.000  0.000  0.000  0.000  0.000  0.000  0.000  0.000  0.000  0.000
   12  0.000  0.000  0.000  0.000  0.000  0.000  0.000  0.000  0.000  0.000
   13  0.000  0.000  0.000  0.000  0.000  0.000  0.000  0.000  0.000  0.000
   14  0.000  0.000  0.000  0.000  0.000  0.000  0.000  0.000  0.000  0.000
   15  0.000  0.000  0.000  0.000  0.000  0.000  0.000  0.000  0.000  0.000
   16  0.000  0.000  0.000  0.000  0.000  0.000  0.000  0.000  0.000  0.000
   17  0.000  0.000  0.000  0.000  0.000  0.000  0.000  0.000  0.000  0.000
   18  0.000  0.000  0.000  0.000  0.000  0.000  0.000  0.000  0.000  0.000
   19  0.012  0.002  0.000  0.001  0.000  0.000  0.000  0.000  0.000  0.015
   20  0.012  0.002  0.000  0.001  0.000  0.000  0.000  0.000  0.000  0.015
   21  0.009  0.001  0.001  0.003  0.000  0.000  0.000  0.000  0.000  0.013
   22  0.009  0.001  0.001  0.003  0.000  0.000  0.000  0.000  0.000  0.013
   23  0.001  0.000  0.000  0.000  0.000  0.000  0.000  0.000  0.000  0.002
   24  0.001  0.000  0.000  0.000  0.000  0.000  0.000  0.000  0.000  0.002
   25  0.003  0.000  0.000  0.000  0.000  0.000  0.000  0.000  0.000  0.003
   26  0.003  0.000  0.000  0.000  0.000  0.000  0.000  0.000  0.000  0.003
   27  0.039  0.004  0.000  0.001  0.000  0.000  0.000  0.000  0.000  0.045
   28  0.039  0.004  0.000  0.001  0.000  0.000  0.000  0.000  0.000  0.045
   29  0.014  0.003  0.001  0.001  0.000  0.000  0.000  0.000  0.000  0.018
   30  0.014  0.003  0.001  0.001  0.000  0.000  0.000  0.000  0.000  0.018
   31  0.024  0.001  0.002  0.004  0.000  0.000  0.000  0.000  0.000  0.030
   32  0.024  0.001  0.002  0.004  0.000  0.000  0.000  0.000  0.000  0.030
   33  0.006  0.001  0.000  0.000  0.000  0.000  0.000  0.000  0.000  0.007
   34  0.006  0.001  0.000  0.000  0.000  0.000  0.000  0.000  0.000  0.007
   35  0.021  0.002  0.000  0.001  0.000  0.000  0.000  0.000  0.000  0.024
   36  0.021  0.002  0.000  0.001  0.000  0.000  0.000  0.000  0.000  0.024
   37  0.004  0.000  0.001  0.000  0.000  0.000  0.000  0.000  0.000  0.005
   38  0.004  0.000  0.001  0.000  0.000  0.000  0.000  0.000  0.000  0.005
   39  0.002  0.000  0.000  0.000  0.000  0.000  0.000  0.000  0.000  0.003
   40  0.002  0.000  0.000  0.000  0.000  0.000  0.000  0.000  0.000  0.003
   41  0.003  0.000  0.000  0.000  0.000  0.000  0.000  0.000  0.000  0.004
   42  0.003  0.000  0.000  0.000  0.000  0.000  0.000  0.000  0.000  0.004
   43  0.100  0.006  0.002  0.000  0.000  0.000  0.000  0.000  0.000  0.108
   44  0.099  0.006  0.002  0.000  0.000  0.000  0.000  0.000  0.000  0.108
   45  0.046  0.001  0.000  0.001  0.000  0.000  0.000  0.000  0.000  0.048
   46  0.046  0.001  0.000  0.001  0.000  0.000  0.000  0.000  0.000  0.048
   47  0.051  0.000  0.004  0.000  0.000  0.000  0.000  0.000  0.000  0.055
   48  0.051  0.000  0.004  0.000  0.000  0.000  0.000  0.000  0.000  0.055
   49  0.000  0.000  0.000  0.000  0.000  0.000  0.000  0.000  0.000  0.000
   50  0.000  0.000  0.000  0.000  0.000  0.000  0.000  0.000  0.000  0.000
   51  0.000  0.000  0.000  0.000  0.000  0.000  0.000  0.000  0.000  0.000
   52  0.000  0.000  0.000  0.000  0.000  0.000  0.000  0.000  0.000  0.000
   53  0.000  0.000  0.000  0.000  0.000  0.000  0.000  0.000  0.000  0.000
   54  0.000  0.000  0.000  0.000  0.000  0.000  0.000  0.000  0.000  0.000
   55  0.000  0.000  0.000  0.000  0.000  0.000  0.000  0.000  0.000  0.000
   56  0.000  0.000  0.000  0.000  0.000  0.000  0.000  0.000  0.000  0.000
   57  0.000  0.000  0.000  0.000  0.000  0.000  0.000  0.000  0.000  0.000
   58  0.000  0.000  0.000  0.000  0.000  0.000  0.000  0.000  0.000  0.000
   59  0.000  0.000  0.000  0.000  0.000  0.000  0.000  0.000  0.000  0.000
   60  0.000  0.000  0.000  0.000  0.000  0.000  0.000  0.000  0.000  0.000
tot    0.673  0.042  0.024  0.026  0.000  0.000  0.000  0.000  0.000  0.766
 
band     7 # energy  -18.82657915 # occ.  2.00000000
 
ion      s     py     pz     px    dxy    dyz    dz2    dxz  x2-y2    tot
    1  0.000  0.000  0.000  0.000  0.000  0.000  0.000  0.000  0.000  0.000
    2  0.000  0.000  0.000  0.000  0.000  0.000  0.000  0.000  0.000  0.000
    3  0.001  0.000  0.000  0.000  0.000  0.000  0.000  0.000  0.000  0.001
    4  0.001  0.000  0.000  0.000  0.000  0.000  0.000  0.000  0.000  0.001
    5  0.000  0.000  0.000  0.000  0.000  0.000  0.000  0.000  0.000  0.000
    6  0.000  0.000  0.000  0.000  0.000  0.000  0.000  0.000  0.000  0.000
    7  0.000  0.000  0.000  0.000  0.000  0.000  0.000  0.000  0.000  0.000
    8  0.000  0.000  0.000  0.000  0.000  0.000  0.000  0.000  0.000  0.000
    9  0.001  0.000  0.000  0.000  0.000  0.000  0.000  0.000  0.000  0.001
   10  0.001  0.000  0.000  0.000  0.000  0.000  0.000  0.000  0.000  0.001
   11  0.000  0.000  0.000  0.000  0.000  0.000  0.000  0.000  0.000  0.000
   12  0.000  0.000  0.000  0.000  0.000  0.000  0.000  0.000  0.000  0.000
   13  0.000  0.000  0.000  0.000  0.000  0.000  0.000  0.000  0.000  0.000
   14  0.000  0.000  0.000  0.000  0.000  0.000  0.000  0.000  0.000  0.000