       N       E                     dE             d eps       ncg     rms          rms(c)
DAV:   1    -0.203378337379E+03   -0.20338E+03   -0.24510E-08  1320   0.117E-03    0.208E-04
RMM:   2    -0.203378337375E+03    0.37262E-08    0.00000E+00   264   0.412E-04
   1 F= -.20618890E+03 E0= -.20618890E+03  d E =-.225230E-35
