 vasp.5.4.4.18Apr17-6-g9f103f2a35 (build Mar 06 2019 16:23:31) complex          
  
 executed on             LinuxIFC date 2019.12.30  16:42:27
 running on   48 total cores
 distrk:  each k-point on   48 cores,    1 groups
 distr:  one band on NCORES_PER_BAND=  24 cores,    2 groups


--------------------------------------------------------------------------------------------------------


 INCAR:
 POTCAR:    PAW_PBE Li 17Jan2003                  
 POTCAR:    PAW_PBE H 15Jun2001                   
 POTCAR:    PAW_PBE C 08Apr2002                   
 POTCAR:    PAW_PBE O 08Apr2002                   

 ----------------------------------------------------------------------------- 
|                                                                             |
|           W    W    AA    RRRRR   N    N  II  N    N   GGGG   !!!           |
|           W    W   A  A   R    R  NN   N  II  NN   N  G    G  !!!           |
|           W    W  A    A  R    R  N N  N  II  N N  N  G       !!!           |
|           W WW W  AAAAAA  RRRRR   N  N N  II  N  N N  G  GGG   !            |
|           WW  WW  A    A  R   R   N   NN  II  N   NN  G    G                |
|           W    W  A    A  R    R  N    N  II  N    N   GGGG   !!!           |
|                                                                             |
|      For optimal performance we recommend to set                            |
|        NCORE= 4 - approx SQRT( number of cores)                             |
|      NCORE specifies how many cores store one orbital (NPAR=cpu/NCORE).     |
|      This setting can  greatly improve the performance of VASP for DFT.     |
|      The default,   NCORE=1            might be grossly inefficient         |
|      on modern multi-core architectures or massively parallel machines.     |
|      Do your own testing !!!!                                               |
|      Unfortunately you need to use the default for GW and RPA calculations. |
|      (for HF NCORE is supported but not extensively tested yet)             |
|                                                                             |
 ----------------------------------------------------------------------------- 

 POTCAR:    PAW_PBE Li 17Jan2003                  
   VRHFIN =Li: s1p0                                                             
   LEXCH  = PE                                                                  
   EATOM  =     5.3001 eV,    0.3895 Ry                                         
                                                                                
   TITEL  = PAW_PBE Li 17Jan2003                                                
   LULTRA =        F    use ultrasoft PP ?                                      
   IUNSCR =        1    unscreen: 0-lin 1-nonlin 2-no                           
   RPACOR =    1.500    partial core radius                                     
   POMASS =    7.010; ZVAL   =    1.000    mass and valenz                      
   RCORE  =    2.050    outmost cutoff radius                                   
   RWIGS  =    2.600; RWIGS  =    1.376    wigner-seitz radius (au A)           
   ENMAX  =  140.000; ENMIN  =  100.000 eV                                      
   ICORE  =        2    local potential                                         
   LCOR   =        T    correct aug charges                                     
   LPAW   =        T    paw PP                                                  
   EAUG   =  331.638                                                            
   DEXC   =    0.000                                                            
   RMAX   =    2.098    core radius for proj-oper                               
   RAUG   =    1.300    factor for augmentation sphere                          
   RDEP   =    2.094    radius for radial grids                                 
   RDEPT  =    1.810    core radius for aug-charge                              
                                                                                
   Atomic configuration                                                         
    4 entries                                                                   
     n  l   j            E        occ.                                          
     1  0  0.50       -51.8549   2.0000                                         
     2  0  0.50        -2.8742   1.0000                                         
     2  1  0.50        -1.3606   0.0000                                         
     3  2  1.50        -1.3606   0.0000                                         
   Description                                                                  
     l       E           TYP  RCUT    TYP  RCUT                                 
     0     -2.8742052     23  2.050                                             
     0     27.2116520     23  2.050                                             
     1     -1.3605826     23  2.050                                             
     2     -1.3605826     23  2.050                                             
  local pseudopotential read in
  partial core-charges read in
  partial kinetic energy density read in
  atomic valenz-charges read in
  non local Contribution for L=           0  read in
    real space projection operators read in
  non local Contribution for L=           0  read in
    real space projection operators read in
  non local Contribution for L=           1  read in
    real space projection operators read in
    PAW grid and wavefunctions read in
 
   number of l-projection  operators is LMAX  =           3
   number of lm-projection operators is LMMAX =           5
 
 POTCAR:    PAW_PBE H 15Jun2001                   
   VRHFIN =H: ultrasoft test                                                    
   LEXCH  = PE                                                                  
   EATOM  =    12.4884 eV,    0.9179 Ry                                         
                                                                                
   TITEL  = PAW_PBE H 15Jun2001                                                 
   LULTRA =        F    use ultrasoft PP ?                                      
   IUNSCR =        0    unscreen: 0-lin 1-nonlin 2-no                           
   RPACOR =    0.000    partial core radius                                     
   POMASS =    1.000; ZVAL   =    1.000    mass and valenz                      
   RCORE  =    1.100    outmost cutoff radius                                   
   RWIGS  =    0.700; RWIGS  =    0.370    wigner-seitz radius (au A)           
   ENMAX  =  250.000; ENMIN  =  200.000 eV                                      
   RCLOC  =    0.701    cutoff for local pot                                    
   LCOR   =        T    correct aug charges                                     
   LPAW   =        T    paw PP                                                  
   EAUG   =  400.000                                                            
   RMAX   =    1.123    core radius for proj-oper                               
   RAUG   =    1.200    factor for augmentation sphere                          
   RDEP   =    1.112    radius for radial grids                                 
   RDEPT  =    0.926    core radius for aug-charge                              
                                                                                
   Atomic configuration                                                         
    2 entries                                                                   
     n  l   j            E        occ.                                          
     1  0  0.50        -6.4927   1.0000                                         
     2  1  0.50        -3.4015   0.0000                                         
   Description                                                                  
     l       E           TYP  RCUT    TYP  RCUT                                 
     0     -6.4927494     23  1.100                                             
     0      6.8029130     23  1.100                                             
     1     -4.0817478     23  1.100                                             
  local pseudopotential read in
  atomic valenz-charges read in
  non local Contribution for L=           0  read in
    real space projection operators read in
  non local Contribution for L=           0  read in
    real space projection operators read in
  non local Contribution for L=           1  read in
    real space projection operators read in
    PAW grid and wavefunctions read in
 
   number of l-projection  operators is LMAX  =           3
   number of lm-projection operators is LMMAX =           5
 
 POTCAR:    PAW_PBE C 08Apr2002                   
   VRHFIN =C: s2p2                                                              
   LEXCH  = PE                                                                  
   EATOM  =   147.1560 eV,   10.8157 Ry                                         
                                                                                
   TITEL  = PAW_PBE C 08Apr2002                                                 
   LULTRA =        F    use ultrasoft PP ?                                      
   IUNSCR =        1    unscreen: 0-lin 1-nonlin 2-no                           
   RPACOR =    1.200    partial core radius                                     
   POMASS =   12.011; ZVAL   =    4.000    mass and valenz                      
   RCORE  =    1.500    outmost cutoff radius                                   
   RWIGS  =    1.630; RWIGS  =    0.863    wigner-seitz radius (au A)           
   ENMAX  =  400.000; ENMIN  =  300.000 eV                                      
   ICORE  =        2    local potential                                         
   LCOR   =        T    correct aug charges                                     
   LPAW   =        T    paw PP                                                  
   EAUG   =  644.873                                                            
   DEXC   =    0.000                                                            
   RMAX   =    1.529    core radius for proj-oper                               
   RAUG   =    1.300    factor for augmentation sphere                          
   RDEP   =    1.501    radius for radial grids                                 
   RDEPT  =    1.300    core radius for aug-charge                              
                                                                                
   Atomic configuration                                                         
    4 entries                                                                   
     n  l   j            E        occ.                                          
     1  0  0.50      -273.3789   2.0000                                         
     2  0  0.50       -13.7508   2.0000                                         
     2  1  0.50        -5.2854   2.0000                                         
     3  2  1.50        -5.4423   0.0000                                         
   Description                                                                  
     l       E           TYP  RCUT    TYP  RCUT                                 
     0    -13.7508458     23  1.200                                             
     0     -8.2022199     23  1.200                                             
     1     -5.2854383     23  1.500                                             
     1     34.0145650     23  1.500                                             
     2     -5.4423304      7  1.500                                             
  local pseudopotential read in
  partial core-charges read in
  partial kinetic energy density read in
  atomic valenz-charges read in
  non local Contribution for L=           0  read in
    real space projection operators read in
  non local Contribution for L=           0  read in
    real space projection operators read in
  non local Contribution for L=           1  read in
    real space projection operators read in
  non local Contribution for L=           1  read in
    real space projection operators read in
    PAW grid and wavefunctions read in
 
   number of l-projection  operators is LMAX  =           4
   number of lm-projection operators is LMMAX =           8
 
 POTCAR:    PAW_PBE O 08Apr2002                   
   VRHFIN =O: s2p4                                                              
   LEXCH  = PE                                                                  
   EATOM  =   432.3788 eV,   31.7789 Ry                                         
                                                                                
   TITEL  = PAW_PBE O 08Apr2002                                                 
   LULTRA =        F    use ultrasoft PP ?                                      
   IUNSCR =        1    unscreen: 0-lin 1-nonlin 2-no                           
   RPACOR =    1.200    partial core radius                                     
   POMASS =   16.000; ZVAL   =    6.000    mass and valenz                      
   RCORE  =    1.520    outmost cutoff radius                                   
   RWIGS  =    1.550; RWIGS  =    0.820    wigner-seitz radius (au A)           
   ENMAX  =  400.000; ENMIN  =  300.000 eV                                      
   ICORE  =        2    local potential                                         
   LCOR   =        T    correct aug charges                                     
   LPAW   =        T    paw PP                                                  
   EAUG   =  605.392                                                            
   DEXC   =    0.000                                                            
   RMAX   =    1.553    core radius for proj-oper                               
   RAUG   =    1.300    factor for augmentation sphere                          
   RDEP   =    1.550    radius for radial grids                                 
   RDEPT  =    1.329    core radius for aug-charge                              
                                                                                
   Atomic configuration                                                         
    4 entries                                                                   
     n  l   j            E        occ.                                          
     1  0  0.50      -514.6923   2.0000                                         
     2  0  0.50       -23.9615   2.0000                                         
     2  1  0.50        -9.0305   4.0000                                         
     3  2  1.50        -9.5241   0.0000                                         
   Description                                                                  
     l       E           TYP  RCUT    TYP  RCUT                                 
     0    -23.9615318     23  1.200                                             
     0     -9.5240782     23  1.200                                             
     1     -9.0304911     23  1.520                                             
     1      8.1634956     23  1.520                                             
     2     -9.5240782      7  1.500                                             
  local pseudopotential read in
  partial core-charges read in
  partial kinetic energy density read in
  kinetic energy density of atom read in
  atomic valenz-charges read in
  non local Contribution for L=           0  read in
    real space projection operators read in
  non local Contribution for L=           0  read in
    real space projection operators read in
  non local Contribution for L=           1  read in
    real space projection operators read in
  non local Contribution for L=           1  read in
    real space projection operators read in
    PAW grid and wavefunctions read in
 
   number of l-projection  operators is LMAX  =           4
   number of lm-projection operators is LMMAX =           8
 

 ----------------------------------------------------------------------------- 
|                                                                             |
|  ADVICE TO THIS USER RUNNING 'VASP/VAMP'   (HEAR YOUR MASTER'S VOICE ...):  |
|                                                                             |
|      You have a (more or less) 'large supercell' and for larger cells       |
|      it might be more efficient to use real space projection opertators     |
|      So try LREAL= Auto  in the INCAR   file.                               |
|      Mind:          For very  accurate calculation you might also keep the  |
|      reciprocal projection scheme          (i.e. LREAL=.FALSE.)             |
|                                                                             |
 ----------------------------------------------------------------------------- 

  PAW_PBE Li 17Jan2003                  :
 energy of atom  1       EATOM=   -5.3001
 kinetic energy error for atom=    0.0000 (will be added to EATOM!!)
  PAW_PBE H 15Jun2001                   :
 energy of atom  2       EATOM=  -12.4884
 kinetic energy error for atom=    0.0014 (will be added to EATOM!!)
  PAW_PBE C 08Apr2002                   :
 energy of atom  3       EATOM= -147.1560
 kinetic energy error for atom=    0.0071 (will be added to EATOM!!)
  PAW_PBE O 08Apr2002                   :
 energy of atom  4       EATOM= -432.3788
 kinetic energy error for atom=    0.0208 (will be added to EATOM!!)
 
 
 POSCAR: Li  H  C  O                             
  positions in cartesian coordinates
  No initial velocities read in
 exchange correlation table for  LEXCH =        8
   RHO(1)=    0.500       N(1)  =     2000
   RHO(2)=  100.500       N(2)  =     4000

 VTST: version 3.2, (02/03/18)

 CHAIN: initializing optimizer
 
 OPT: Using VASP Dynamics algorithm
 CHAIN: Read ICHAIN            0
 
 POSCAR: Li  H  C  O                             
  positions in cartesian coordinates
  No initial velocities read in
 


--------------------------------------------------------------------------------------------------------


 ion  position               nearest neighbor table
   1  0.839  0.130  0.263-  28 1.92  32 1.92  21 1.94  27 1.97   2 3.03   2 3.03
   2  0.339  0.870  0.237-  27 1.92  31 1.92  22 1.94  28 1.97   1 3.03   1 3.03
   3  0.161  0.870  0.737-  26 1.92  30 1.92  23 1.94  25 1.97   4 3.02   4 3.03
   4  0.661  0.130  0.763-  25 1.92  29 1.92  24 1.94  26 1.97   3 3.02   3 3.03
   5  0.658  0.307  0.044-  21 1.01
   6  0.158  0.693  0.456-  22 1.01
   7  0.342  0.693  0.956-  23 1.01
   8  0.842  0.307  0.544-  24 1.01
   9  0.186  0.454  0.131-  17 1.10
  10  0.686  0.546  0.370-  18 1.10
  11  0.814  0.546  0.870-  19 1.10
  12  0.314  0.454  0.631-  20 1.10
  13  0.169  0.244  0.927-  29 1.27  25 1.27  17 1.54
  14  0.669  0.756  0.573-  26 1.27  30 1.27  18 1.54
  15  0.831  0.756  0.073-  27 1.27  31 1.27  19 1.54
  16  0.331  0.244  0.427-  28 1.27  32 1.27  20 1.54
  17  0.039  0.406  0.042-   9 1.10  21 1.42  13 1.54  19 1.55
  18  0.538  0.594  0.458-  10 1.10  22 1.42  14 1.54  20 1.55
  19  0.962  0.594  0.958-  11 1.10  23 1.42  15 1.54  17 1.55
  20  0.461  0.406  0.542-  12 1.10  24 1.42  16 1.54  18 1.55
  21  0.813  0.330  0.116-   5 1.01  17 1.42   1 1.94
  22  0.313  0.670  0.384-   6 1.01  18 1.42   2 1.94
  23  0.187  0.670  0.884-   7 1.01  19 1.42   3 1.94
  24  0.687  0.330  0.616-   8 1.01  20 1.42   4 1.94
  25  0.019  0.128  0.840-  13 1.27   4 1.92   3 1.97
  26  0.519  0.872  0.660-  14 1.27   3 1.92   4 1.97
  27  0.981  0.872  0.160-  15 1.27   2 1.92   1 1.97
  28  0.481  0.128  0.340-  16 1.27   1 1.92   2 1.97
  29  0.423  0.237  0.922-  13 1.27   4 1.92
  30  0.923  0.763  0.579-  14 1.27   3 1.92
  31  0.577  0.763  0.079-  15 1.27   2 1.92
  32  0.077  0.237  0.422-  16 1.27   1 1.92
 

IMPORTANT INFORMATION: All symmetrisations will be switched off!
NOSYMM: (Re-)initialisation of all symmetry stuff for point group C_1.

 
 
 KPOINTS: KPOINTS created by Atomic Simulation Env

Automatic generation of k-mesh.
Space group operators:
 irot       det(A)        alpha          n_x          n_y          n_z        tau_x        tau_y        tau_z
    1     1.000000     0.000001     1.000000     0.000000     0.000000     0.000000     0.000000     0.000000
 
 Subroutine IBZKPT returns following result:
 ===========================================
 
 Found     14 irreducible k-points:
 
 Following reciprocal coordinates:
            Coordinates               Weight
  0.000000  0.000000  0.000000      1.000000
  0.250000  0.000000  0.000000      2.000000
  0.500000  0.000000  0.000000      1.000000
  0.000000  0.333333  0.000000      2.000000
  0.250000  0.333333  0.000000      2.000000
  0.500000  0.333333  0.000000      2.000000
 -0.250000  0.333333  0.000000      2.000000
  0.000000  0.000000  0.500000      1.000000
  0.250000  0.000000  0.500000      2.000000
  0.500000  0.000000  0.500000      1.000000
  0.000000  0.333333  0.500000      2.000000
  0.250000  0.333333  0.500000      2.000000
  0.500000  0.333333  0.500000      2.000000
 -0.250000  0.333333  0.500000      2.000000
 
 Following cartesian coordinates:
            Coordinates               Weight
  0.000000  0.000000  0.000000      1.000000
  0.049948 -0.000001  0.000000      2.000000
  0.099895 -0.000003  0.000000      1.000000
 -0.000002  0.051057 -0.000061      2.000000
  0.049946  0.051055 -0.000060      2.000000
  0.099894  0.051054 -0.000060      2.000000
 -0.049949  0.051058 -0.000061      2.000000
 -0.000000  0.005861  0.056427      1.000000
  0.049947  0.005860  0.056427      2.000000
  0.099895  0.005858  0.056427      1.000000
 -0.000002  0.056918  0.056366      2.000000
  0.049946  0.056917  0.056366      2.000000
  0.099894  0.056915  0.056366      2.000000
 -0.049950  0.056919  0.056366      2.000000
 


--------------------------------------------------------------------------------------------------------




 Dimension of arrays:
   k-points           NKPTS =     14   k-points in BZ     NKDIM =     14   number of bands    NBANDS=     76
   number of dos      NEDOS =    301   number of ions     NIONS =     32
   non local maximal  LDIM  =      4   non local SUM 2l+1 LMDIM =      8
   total plane-waves  NPLWV = 140000
   max r-space proj   IRMAX =      1   max aug-charges    IRDMAX=  15671
   dimension x,y,z NGX =    40 NGY =   50 NGZ =   70
   dimension x,y,z NGXF=    80 NGYF=  100 NGZF=  140
   support grid    NGXF=    80 NGYF=  100 NGZF=  140
   ions per type =               4   8   8  12
   NGX,Y,Z   is equivalent  to a cutoff of  13.29, 12.67, 13.13 a.u.
   NGXF,Y,Z  is equivalent  to a cutoff of  26.57, 25.33, 26.27 a.u.

 SYSTEM =  unknown system                          
 POSCAR =  Li  H  C  O                             

 Startparameter for this run:
   NWRITE =      2    write-flag & timer
   PREC   = accura    normal or accurate (medium, high low for compatibility)
   ISTART =      1    job   : 0-new  1-cont  2-samecut
   ICHARG =      0    charge: 1-file 2-atom 10-const
   ISPIN  =      1    spin polarized calculation?
   LNONCOLLINEAR =      F non collinear calculations
   LSORBIT =      F    spin-orbit coupling
   INIWAV =      1    electr: 0-lowe 1-rand  2-diag
   LASPH  =      F    aspherical Exc in radial PAW
   METAGGA=      F    non-selfconsistent MetaGGA calc.

 Electronic Relaxation 1
   ENCUT  =  520.0 eV  38.22 Ry    6.18 a.u.   9.31 12.20 16.47*2*pi/ulx,y,z
   ENINI  =  520.0     initial cutoff
   ENAUG  =  644.9 eV  augmentation charge cutoff
   NELM   =    150;   NELMIN=  2; NELMDL=  0     # of ELM steps 
   EDIFF  = 0.1E-05   stopping-criterion for ELM
   LREAL  =      F    real-space projection
   NLSPLINE    = F    spline interpolate recip. space projectors
   LCOMPAT=      F    compatible to vasp.4.4
   GGA_COMPAT  = T    GGA compatible to vasp.4.4-vasp.4.6
   LMAXPAW     = -100 max onsite density
   LMAXMIX     =    2 max onsite mixed and CHGCAR
   VOSKOWN=      0    Vosko Wilk Nusair interpolation
   ROPT   =    0.00000   0.00000   0.00000   0.00000
 Ionic relaxation
   EDIFFG = 0.1E-04   stopping-criterion for IOM
   NSW    =      0    number of steps for IOM
   NBLOCK =      1;   KBLOCK =      1    inner block; outer block 
   IBRION =     -1    ionic relax: 0-MD 1-quasi-New 2-CG
   NFREE  =      0    steps in history (QN), initial steepest desc. (CG)
   ISIF   =      2    stress and relaxation
   IWAVPR =     10    prediction:  0-non 1-charg 2-wave 3-comb
   ISYM   =      0    0-nonsym 1-usesym 2-fastsym
   LCORR  =      T    Harris-Foulkes like correction to forces

   POTIM  = 0.5000    time-step for ionic-motion
   TEIN   =    0.0    initial temperature
   TEBEG  =    0.0;   TEEND  =   0.0 temperature during run
   SMASS  =  -3.00    Nose mass-parameter (am)
   estimated Nose-frequenzy (Omega)   =  0.10E-29 period in steps =****** mass=  -0.573E-27a.u.
   SCALEE = 1.0000    scale energy and forces
   NPACO  =    256;   APACO  = 16.0  distance and # of slots for P.C.
   PSTRESS=    0.0 pullay stress

  Mass of Ions in am
   POMASS =   7.01  1.00 12.01 16.00
  Ionic Valenz
   ZVAL   =   1.00  1.00  4.00  6.00
  Atomic Wigner-Seitz radii
   RWIGS  =  -1.00 -1.00 -1.00 -1.00
  virtual crystal weights 
   VCA    =   1.00  1.00  1.00  1.00
   NELECT =     116.0000    total number of electrons
   NUPDOWN=      -1.0000    fix difference up-down

 DOS related values:
   EMIN   =  10.00;   EMAX   =-10.00  energy-range for DOS
   EFERMI =   0.00
   ISMEAR =     0;   SIGMA  =   0.01  broadening in eV -4-tet -1-fermi 0-gaus

 Electronic relaxation 2 (details)
   IALGO  =     68    algorithm
   LDIAG  =      T    sub-space diagonalisation (order eigenvalues)
   LSUBROT=      F    optimize rotation matrix (better conditioning)
   TURBO    =      0    0=normal 1=particle mesh
   IRESTART =      0    0=no restart 2=restart with 2 vectors
   NREBOOT  =      0    no. of reboots
   NMIN     =      0    reboot dimension
   EREF     =   0.00    reference energy to select bands
   IMIX   =      4    mixing-type and parameters
     AMIX     =   0.40;   BMIX     =  1.00
     AMIX_MAG =   1.60;   BMIX_MAG =  1.00
     AMIN     =   0.10
     WC   =   100.;   INIMIX=   1;  MIXPRE=   1;  MAXMIX= -45

 Intra band minimization:
   WEIMIN = 0.0000     energy-eigenvalue tresh-hold
   EBREAK =  0.33E-08  absolut break condition
   DEPER  =   0.30     relativ break condition  

   TIME   =   0.40     timestep for ELM

  volume/ion in A,a.u.               =       9.05        61.06
  Fermi-wavevector in a.u.,A,eV,Ry     =   1.206886  2.280685 19.817905  1.456575
  Thomas-Fermi vector in A             =   2.342540
 
 Write flags
   LWAVE        =      T    write WAVECAR
   LDOWNSAMPLE  =      F    k-point downsampling of WAVECAR
   LCHARG       =      T    write CHGCAR
   LVTOT        =      F    write LOCPOT, total local potential
   LVHAR        =      F    write LOCPOT, Hartree potential only
   LELF         =      F    write electronic localiz. function (ELF)
   LORBIT       =     11    0 simple, 1 ext, 2 COOP (PROOUT), +10 PAW based schemes


 Dipole corrections
   LMONO  =      F    monopole corrections only (constant potential shift)
   LDIPOL =      F    correct potential (dipole corrections)
   IDIPOL =      0    1-x, 2-y, 3-z, 4-all directions 
   EPSILON=  1.0000000 bulk dielectric constant

 Exchange correlation treatment:
   GGA     =    PE    GGA type
   LEXCH   =     8    internal setting for exchange type
   VOSKOWN=      0    Vosko Wilk Nusair interpolation
   LHFCALC =     F    Hartree Fock is set to
   LHFONE  =     F    Hartree Fock one center treatment
   AEXX    =    0.0000 exact exchange contribution

 Linear response parameters
   LEPSILON=     F    determine dielectric tensor
   LRPA    =     F    only Hartree local field effects (RPA)
   LNABLA  =     F    use nabla operator in PAW spheres
   LVEL    =     F    velocity operator in full k-point grid
   LINTERFAST=   F  fast interpolation
   KINTER  =     0    interpolate to denser k-point grid
   CSHIFT  =0.1000    complex shift for real part using Kramers Kronig
   OMEGAMAX=  -1.0    maximum frequency
   DEG_THRESHOLD= 0.2000000E-02 threshold for treating states as degnerate
   RTIME   =   -0.100 relaxation time in fs
  (WPLASMAI=    0.000 imaginary part of plasma frequency in eV, 0.658/RTIME)
   DFIELD  = 0.0000000 0.0000000 0.0000000 field for delta impulse in time
 
 Orbital magnetization related:
   ORBITALMAG=     F  switch on orbital magnetization
   LCHIMAG   =     F  perturbation theory with respect to B field
   DQ        =  0.001000  dq finite difference perturbation B field
   LLRAUG    =     F  two centre corrections for induced B field



--------------------------------------------------------------------------------------------------------


 Static calculation
 charge density and potential will be updated during run
 non-spin polarized calculation
 RMM-DIIS sequential band-by-band and
  variant of blocked Davidson during initial phase
 perform sub-space diagonalisation
    before iterative eigenvector-optimisation
 modified Broyden-mixing scheme, WC =      100.0
 initial mixing is a Kerker type mixing with AMIX =  0.4000 and BMIX =      1.0000
 Hartree-type preconditioning will be used
 using additional bands           18
 reciprocal scheme for non local part
 use partial core corrections
 calculate Harris-corrections to forces 
   (improved forces if not selfconsistent)
 use gradient corrections 
 use of overlap-Matrix (Vanderbilt PP)
 Gauss-broadening in eV      SIGMA  =   0.01


--------------------------------------------------------------------------------------------------------


  energy-cutoff  :      520.00
  volume of cell :      289.52
      direct lattice vectors                 reciprocal lattice vectors
     5.005236380  0.000158146  0.000003980     0.199790764 -0.000005531  0.000000453
     0.000182246  6.527885149 -0.678075513    -0.000004839  0.153170091 -0.000181746
    -0.000019796  0.010512922  8.859977712    -0.000000460  0.011722477  0.112853192

  length of vectors
     5.005236382  6.563007767  8.859983949     0.199790764  0.153170199  0.113460387


 
 old parameters found on file WAVECAR:
  energy-cutoff  :      520.00
  volume of cell :      289.52
      direct lattice vectors                 reciprocal lattice vectors
     5.005236380  0.000158146  0.000003980     0.199790764 -0.000005531  0.000000453
     0.000182246  6.527885149 -0.678075513    -0.000004839  0.153170091 -0.000181746
    -0.000019796  0.010512922  8.859977712    -0.000000460  0.011722477  0.112853192

  length of vectors

 
 k-points in units of 2pi/SCALE and weight: KPOINTS created by Atomic Simulation Env
   0.00000000  0.00000000  0.00000000       0.042
   0.04994769 -0.00000138  0.00000011       0.083
   0.09989538 -0.00000277  0.00000023       0.042
  -0.00000161  0.05105670 -0.00006058       0.083
   0.04994608  0.05105531 -0.00006047       0.083
   0.09989377  0.05105393 -0.00006036       0.083
  -0.04994930  0.05105808 -0.00006070       0.083
  -0.00000023  0.00586124  0.05642660       0.042
   0.04994746  0.00585986  0.05642671       0.083
   0.09989515  0.00585847  0.05642682       0.042
  -0.00000184  0.05691794  0.05636601       0.083
   0.04994585  0.05691655  0.05636613       0.083
   0.09989354  0.05691517  0.05636624       0.083
  -0.04994953  0.05691932  0.05636590       0.083
 
 k-points in reciprocal lattice and weights: KPOINTS created by Atomic Simulation Env
   0.00000000  0.00000000  0.00000000       0.042
   0.25000000  0.00000000  0.00000000       0.083
   0.50000000  0.00000000  0.00000000       0.042
   0.00000000  0.33333333  0.00000000       0.083
   0.25000000  0.33333333  0.00000000       0.083
   0.50000000  0.33333333  0.00000000       0.083
  -0.25000000  0.33333333  0.00000000       0.083
   0.00000000  0.00000000  0.50000000       0.042
   0.25000000  0.00000000  0.50000000       0.083
   0.50000000  0.00000000  0.50000000       0.042
   0.00000000  0.33333333  0.50000000       0.083
   0.25000000  0.33333333  0.50000000       0.083
   0.50000000  0.33333333  0.50000000       0.083
  -0.25000000  0.33333333  0.50000000       0.083
 
 position of ions in fractional coordinates (direct lattice) 
   0.83858207  0.13013653  0.26263487
   0.33862460  0.86990670  0.23736641
   0.16132426  0.86990236  0.73735726
   0.66148552  0.13012912  0.76262999
   0.65793794  0.30691909  0.04407705
   0.15772536  0.69310843  0.45589609
   0.34227007  0.69313207  0.95590359
   0.84211904  0.30692434  0.54408992
   0.18556364  0.45365966  0.13055166
   0.68563150  0.54634646  0.36951012
   0.81438464  0.54632548  0.86952213
   0.31438471  0.45363714  0.63056693
   0.16907570  0.24406377  0.92676339
   0.66920188  0.75589844  0.57319485
   0.83085860  0.75591085  0.07318769
   0.33087827  0.24405470  0.42677378
   0.03853902  0.40560098  0.04159355
   0.53847821  0.59441395  0.45837084
   0.96151316  0.59443028  0.95837541
   0.46144410  0.40562494  0.54162128
   0.81322276  0.33001534  0.11596554
   0.31310519  0.66993566  0.38404563
   0.18687137  0.66996223  0.88405011
   0.68679315  0.33003426  0.61597169
   0.01923253  0.12777247  0.84019730
   0.51917311  0.87210364  0.65971047
   0.98081166  0.87211329  0.15975376
   0.48076919  0.12780053  0.34023071
   0.42254050  0.23693663  0.92154061
   0.92274011  0.76314487  0.57852698
   0.57730590  0.76312823  0.07850090
   0.07739798  0.23691844  0.42152118
 
 position of ions in cartesian coordinates  (Angst):
   4.19732000  0.85241000  2.23870000
   1.69505000  5.68120000  1.51320000
   0.80761000  5.68640000  5.94311000
   3.31090000  0.85759000  6.66865000
   3.29319000  2.00410000  0.18241000
   0.78957000  4.52935000  3.56925000
   1.71325000  4.53479000  7.99929000
   4.21505000  2.00942000  4.61251000
   0.92887000  2.96284000  0.84907000
   3.43184000  3.57048000  2.90339000
   4.07627000  3.57562000  7.33350000
   1.57364000  2.96797000  5.27921000
   0.84629000  1.60299000  8.04561000
   3.34964000  4.94055000  4.56594000
   4.15878000  4.93540000  0.13588000
   1.65616000  1.59770000  3.61572000
   0.19297000  2.64816000  0.09349000
   2.69531000  3.88517000  3.65810000
   4.81269000  3.89060000  8.08812000
   2.30970000  2.65364000  4.52371000
   4.07043000  2.15565000  0.80368000
   1.56728000  4.37735000  2.94837000
   0.93544000  4.38276000  7.37838000
   3.43761000  2.16101000  5.23371000
   0.09627000  0.84292000  7.35749000
   2.59873000  5.70001000  5.25367000
   4.90935000  5.69489000  0.82406000
   2.40638000  0.83792000  2.92778000
   2.11494000  1.55645000  8.00417000
   4.61866000  4.98795000  4.60827000
   2.88969000  4.98253000  0.17806000
   0.38743000  1.55102000  3.57402000
 


--------------------------------------------------------------------------------------------------------


 k-point  1 :   0.0000 0.0000 0.0000  plane waves:    7819
 k-point  2 :   0.2500 0.0000 0.0000  plane waves:    7815
 k-point  3 :   0.5000 0.0000 0.0000  plane waves:    7782
 k-point  4 :   0.0000 0.3333 0.0000  plane waves:    7800
 k-point  5 :   0.2500 0.3333 0.0000  plane waves:    7803
 k-point  6 :   0.5000 0.3333 0.0000  plane waves:    7804
 k-point  7 :  -0.2500 0.3333 0.0000  plane waves:    7802
 k-point  8 :   0.0000 0.0000 0.5000  plane waves:    7788
 k-point  9 :   0.2500 0.0000 0.5000  plane waves:    7774
 k-point 10 :   0.5000 0.0000 0.5000  plane waves:    7784
 k-point 11 :   0.0000 0.3333 0.5000  plane waves:    7799
 k-point 12 :   0.2500 0.3333 0.5000  plane waves:    7783
 k-point 13 :   0.5000 0.3333 0.5000  plane waves:    7792
 k-point 14 :  -0.2500 0.3333 0.5000  plane waves:    7784

 maximum and minimum number of plane-waves per node :       336      312

 maximum number of plane-waves:      7819
 maximum index in each direction: 
   IXMAX=    9   IYMAX=   12   IZMAX=   16
   IXMIN=   -9   IYMIN=  -12   IZMIN=  -16


 parallel 3D FFT for wavefunctions:
    minimum data exchange during FFTs selected (reduces bandwidth)
 parallel 3D FFT for charge:
    minimum data exchange during FFTs selected (reduces bandwidth)


 total amount of memory used by VASP MPI-rank0    37753. kBytes
=======================================================================

   base      :      30000. kBytes
   nonl-proj :       1359. kBytes
   fftplans  :       1123. kBytes
   grid      :       2320. kBytes
   one-center:          6. kBytes
   wavefun   :       2945. kBytes
 
     INWAV:  cpu time    0.2670: real time    0.2677
 Broyden mixing: mesh for mixing (old mesh)
   NGX = 19   NGY = 25   NGZ = 33
  (NGX  = 80   NGY  =100   NGZ  =140)
  gives a total of  15675 points

 charge density for first step will be calculated from the start-wavefunctions


--------------------------------------------------------------------------------------------------------


 Maximum index for augmentation-charges          652 (set IRDMAX)


--------------------------------------------------------------------------------------------------------


 initial charge from wavefunction
 First call to EWALD:  gamma=   0.268
 Maximum number of real-space cells 3x 3x 2
 Maximum number of reciprocal cells 2x 3x 4

    FEWALD:  cpu time    0.0016: real time    0.0018


--------------------------------------- Iteration      1(   1)  ---------------------------------------


    POTLOK:  cpu time    0.0180: real time    0.0371
    SETDIJ:  cpu time    0.0024: real time    0.0025
     EDDAV:  cpu time    0.5764: real time    0.5790
       DOS:  cpu time    0.0006: real time    0.0006
    CHARGE:  cpu time    0.0411: real time    0.0412
    MIXING:  cpu time    0.0015: real time    0.0015
    --------------------------------------------
      LOOP:  cpu time    0.6401: real time    0.6619

 eigenvalue-minimisations  :  1320
 total energy-change (2. order) :-0.2033783E+03  (-0.2451006E-08)
 number of electron     116.0000017 magnetization 
 augmentation part        8.7629339 magnetization 

 Broyden mixing:
  rms(total) = 0.20756E-04    rms(broyden)= 0.20743E-04
  rms(prec ) = 0.31219E-04
  weight for this iteration     100.00

 Free energy of the ion-electron system (eV)
  ---------------------------------------------------
  alpha Z        PSCENC =       189.17927809
  Ewald energy   TEWEN  =     -3710.77847315
  -Hartree energ DENC   =     -2721.44452646
  -exchange      EXHF   =         0.00000000
  -V(xc)+E(xc)   XCENC  =       462.09056221
  PAW double counting   =      9422.56878545    -9430.61194082
  entropy T*S    EENTRO =        -0.00000000
  eigenvalues    EBANDS =      -900.96516297
  atomic energy  EATOM  =      6486.58314028
  Solvation  Ediel_sol  =         0.00000000
  ---------------------------------------------------
  free energy    TOTEN  =      -203.37833738 eV

  energy without entropy =     -203.37833738  energy(sigma->0) =     -203.37833738


--------------------------------------------------------------------------------------------------------




--------------------------------------- Iteration      1(   2)  ---------------------------------------


    POTLOK:  cpu time    0.0435: real time    0.0440
    SETDIJ:  cpu time    0.0022: real time    0.0022
    EDDIAG:  cpu time    0.1885: real time    0.1890
  RMM-DIIS:  cpu time    0.2190: real time    0.2198
    ORTHCH:  cpu time    0.0186: real time    0.0186
       DOS:  cpu time    0.0004: real time    0.0004
    --------------------------------------------
      LOOP:  cpu time    0.4721: real time    0.4741

 eigenvalue-minimisations  :   264
 total energy-change (2. order) : 0.3726200E-08  ( 0.0000000E+00)
 number of electron     116.0000017 magnetization 
 augmentation part        8.7629339 magnetization 

 Free energy of the ion-electron system (eV)
  ---------------------------------------------------
  alpha Z        PSCENC =       189.17927809
  Ewald energy   TEWEN  =     -3710.77847315
  -Hartree energ DENC   =     -2721.44423779
  -exchange      EXHF   =         0.00000000
  -V(xc)+E(xc)   XCENC  =       462.09053978
  PAW double counting   =      9422.56849140    -9430.61164188
  entropy T*S    EENTRO =        -0.00000000
  eigenvalues    EBANDS =      -900.96543410
  atomic energy  EATOM  =      6486.58314028
  Solvation  Ediel_sol  =         0.00000000
  ---------------------------------------------------
  free energy    TOTEN  =      -203.37833737 eV

  energy without entropy =     -203.37833737  energy(sigma->0) =     -203.37833737


--------------------------------------------------------------------------------------------------------




 average (electrostatic) potential at core
  the test charge radii are     0.9748  0.5201  0.6991  0.7215
  (the norm of the test charge is              1.0000)
       1 -26.9014       2 -26.8999       3 -26.8990       4 -26.9016       5 -37.8711
       6 -37.8667       7 -37.8657       8 -37.8690       9 -36.3943      10 -36.3961
      11 -36.3972      12 -36.3944      13 -55.7711      14 -55.7709      15 -55.7714
      16 -55.7708      17 -54.3579      18 -54.3581      19 -54.3585      20 -54.3575
      21 -74.8490      22 -74.8473      23 -74.8472      24 -74.8480      25 -74.3364
      26 -74.3353      27 -74.3360      28 -74.3367      29 -74.3807      30 -74.3812
      31 -74.3808      32 -74.3806
 
 
 
 E-fermi :   0.1308     XC(G=0):  -8.8181     alpha+bet : -8.6652


 k-point     1 :       0.0000    0.0000    0.0000
  band No.  band energies     occupation 
      1     -21.2440      2.00000
      2     -21.1768      2.00000
      3     -21.0037      2.00000
      4     -20.9987      2.00000
      5     -19.8775      2.00000
      6     -19.8633      2.00000
      7     -19.7539      2.00000
      8     -19.7086      2.00000
      9     -18.6514      2.00000
     10     -18.6287      2.00000
     11     -18.6181      2.00000
     12     -18.6147      2.00000
     13     -13.0382      2.00000
     14     -13.0176      2.00000
     15     -10.9650      2.00000
     16     -10.9605      2.00000
     17      -8.3914      2.00000
     18      -8.2573      2.00000
     19      -7.8309      2.00000
     20      -7.7624      2.00000
     21      -7.3441      2.00000
     22      -7.2504      2.00000
     23      -6.9419      2.00000
     24      -6.8912      2.00000
     25      -6.5085      2.00000
     26      -6.3246      2.00000
     27      -6.2712      2.00000
     28      -6.0665      2.00000
     29      -5.6318      2.00000
     30      -5.6138      2.00000
     31      -5.2165      2.00000
     32      -5.1007      2.00000
     33      -4.7531      2.00000
     34      -4.7248      2.00000
     35      -4.5004      2.00000
     36      -4.4376      2.00000
     37      -4.1493      2.00000
     38      -3.8838      2.00000
     39      -3.5259      2.00000
     40      -3.4583      2.00000
     41      -2.5451      2.00000
     42      -2.2576      2.00000
     43      -2.0833      2.00000
     44      -2.0653      2.00000
     45      -1.9709      2.00000
     46      -1.9020      2.00000
     47      -1.5636      2.00000
     48      -1.4437      2.00000
     49      -1.3265      2.00000
     50      -1.2592      2.00000
     51      -0.9834      2.00000
     52      -0.8839      2.00000
     53      -0.7920      2.00000
     54      -0.7712      2.00000
     55      -0.7223      2.00000
     56      -0.6025      2.00000
     57      -0.0546      2.00000
     58       0.0449      2.00000
     59       3.9445      0.00000
     60       4.3421      0.00000
     61       5.2348      0.00000
     62       5.3255      0.00000
     63       6.2752      0.00000
     64       6.8015      0.00000
     65       7.6122      0.00000
     66       8.0012      0.00000
     67       8.8056      0.00000
     68       9.0336      0.00000
     69       9.0637      0.00000
     70       9.2024      0.00000
     71       9.5077      0.00000
     72       9.5337      0.00000
     73       9.6234      0.00000
     74       9.8871      0.00000
     75      10.0200      0.00000
     76      10.2982      0.00000

 k-point     2 :       0.2500    0.0000    0.0000
  band No.  band energies     occupation 
      1     -21.1707      2.00000
      2     -21.1195      2.00000
      3     -20.9720      2.00000
      4     -20.9698      2.00000
      5     -19.9609      2.00000
      6     -19.9604      2.00000
      7     -19.7997      2.00000
      8     -19.7903      2.00000
      9     -18.6257      2.00000
     10     -18.6224      2.00000
     11     -18.6134      2.00000
     12     -18.6069      2.00000
     13     -13.0032      2.00000
     14     -12.9849      2.00000
     15     -10.8845      2.00000
     16     -10.8816      2.00000
     17      -8.7248      2.00000
     18      -8.6416      2.00000
     19      -7.8757      2.00000
     20      -7.8501      2.00000
     21      -7.3599      2.00000
     22      -7.2860      2.00000
     23      -6.5626      2.00000
     24      -6.5509      2.00000
     25      -6.3579      2.00000
     26      -6.3149      2.00000
     27      -5.9333      2.00000
     28      -5.8807      2.00000
     29      -5.7034      2.00000
     30      -5.6317      2.00000
     31      -5.1328      2.00000
     32      -5.0767      2.00000
     33      -4.7330      2.00000
     34      -4.6886      2.00000
     35      -4.4136      2.00000
     36      -4.4103      2.00000
     37      -4.1080      2.00000
     38      -4.0862      2.00000
     39      -3.5460      2.00000
     40      -3.5376      2.00000
     41      -2.5849      2.00000
     42      -2.3615      2.00000
     43      -2.1282      2.00000
     44      -2.0313      2.00000
     45      -1.9568      2.00000
     46      -1.8341      2.00000
     47      -1.5425      2.00000
     48      -1.5084      2.00000
     49      -1.2939      2.00000
     50      -1.2752      2.00000
     51      -1.1558      2.00000
     52      -1.0001      2.00000
     53      -0.9259      2.00000
     54      -0.8546      2.00000
     55      -0.7841      2.00000
     56      -0.6265      2.00000
     57      -0.1507      2.00000
     58      -0.0689      2.00000
     59       3.9868      0.00000
     60       4.3094      0.00000
     61       5.3281      0.00000
     62       5.3421      0.00000
     63       6.3279      0.00000
     64       7.1063      0.00000
     65       7.5970      0.00000
     66       7.7293      0.00000
     67       8.4806      0.00000
     68       8.8742      0.00000
     69       9.0402      0.00000
     70       9.1243      0.00000
     71       9.3324      0.00000
     72       9.3785      0.00000
     73       9.6967      0.00000
     74      10.0688      0.00000
     75      10.2542      0.00000
     76      10.3131      0.00000

 k-point     3 :       0.5000    0.0000    0.0000
  band No.  band energies     occupation 
      1     -21.0611      2.00000
      2     -21.0608      2.00000
      3     -20.9479      2.00000
      4     -20.9475      2.00000
      5     -20.0572      2.00000
      6     -20.0569      2.00000
      7     -19.8616      2.00000
      8     -19.8611      2.00000
      9     -18.6222      2.00000
     10     -18.6206      2.00000
     11     -18.5936      2.00000
     12     -18.5920      2.00000
     13     -12.9611      2.00000
     14     -12.9596      2.00000
     15     -10.8010      2.00000
     16     -10.7997      2.00000
     17      -8.8903      2.00000
     18      -8.8892      2.00000
     19      -8.1463      2.00000
     20      -8.1456      2.00000
     21      -7.0166      2.00000
     22      -7.0155      2.00000
     23      -6.4398      2.00000
     24      -6.4388      2.00000
     25      -6.1892      2.00000
     26      -6.1885      2.00000
     27      -5.9315      2.00000
     28      -5.9308      2.00000
     29      -5.4370      2.00000
     30      -5.4366      2.00000
     31      -5.2544      2.00000
     32      -5.2534      2.00000
     33      -4.4829      2.00000
     34      -4.4813      2.00000
     35      -4.4507      2.00000
     36      -4.4485      2.00000
     37      -4.0961      2.00000
     38      -4.0955      2.00000
     39      -3.6346      2.00000
     40      -3.6326      2.00000
     41      -2.5811      2.00000
     42      -2.5800      2.00000
     43      -2.0597      2.00000
     44      -2.0594      2.00000
     45      -1.8240      2.00000
     46      -1.8234      2.00000
     47      -1.5734      2.00000
     48      -1.5730      2.00000
     49      -1.3055      2.00000
     50      -1.3052      2.00000
     51      -1.1603      2.00000
     52      -1.1594      2.00000
     53      -0.9782      2.00000
     54      -0.9779      2.00000
     55      -0.8289      2.00000
     56      -0.8287      2.00000
     57      -0.2190      2.00000
     58      -0.2182      2.00000
     59       4.1781      0.00000
     60       4.1793      0.00000
     61       5.3453      0.00000
     62       5.3462      0.00000
     63       6.7753      0.00000
     64       6.7764      0.00000
     65       7.7222      0.00000
     66       7.7227      0.00000
     67       8.6057      0.00000
     68       8.6075      0.00000
     69       8.9631      0.00000
     70       8.9644      0.00000
     71       9.3049      0.00000
     72       9.3072      0.00000
     73       9.5526      0.00000
     74       9.5533      0.00000
     75       9.9828      0.00000
     76       9.9839      0.00000

 k-point     4 :       0.0000    0.3333    0.0000
  band No.  band energies     occupation 
      1     -21.2048      2.00000
      2     -21.1610      2.00000
      3     -21.0460      2.00000
      4     -21.0096      2.00000
      5     -19.8977      2.00000
      6     -19.8722      2.00000
      7     -19.7434      2.00000
      8     -19.7003      2.00000
      9     -18.6465      2.00000
     10     -18.6255      2.00000
     11     -18.6198      2.00000
     12     -18.6180      2.00000
     13     -13.0352      2.00000
     14     -13.0000      2.00000
     15     -10.9775      2.00000
     16     -10.9335      2.00000
     17      -8.3222      2.00000
     18      -8.2804      2.00000
     19      -7.8818      2.00000
     20      -7.8015      2.00000
     21      -7.3574      2.00000
     22      -7.2813      2.00000
     23      -6.9350      2.00000
     24      -6.9019      2.00000
     25      -6.5391      2.00000
     26      -6.2667      2.00000
     27      -6.0968      2.00000
     28      -5.9790      2.00000
     29      -5.7267      2.00000
     30      -5.5453      2.00000
     31      -5.3409      2.00000
     32      -5.0297      2.00000
     33      -4.8300      2.00000
     34      -4.7156      2.00000
     35      -4.6427      2.00000
     36      -4.3693      2.00000
     37      -4.1406      2.00000
     38      -3.9128      2.00000
     39      -3.6708      2.00000
     40      -3.5469      2.00000
     41      -2.4511      2.00000
     42      -2.3354      2.00000
     43      -2.1535      2.00000
     44      -2.1247      2.00000
     45      -1.9268      2.00000
     46      -1.9188      2.00000
     47      -1.4900      2.00000
     48      -1.4033      2.00000
     49      -1.3270      2.00000
     50      -1.2745      2.00000
     51      -0.8544      2.00000
     52      -0.8135      2.00000
     53      -0.7659      2.00000
     54      -0.7261      2.00000
     55      -0.6522      2.00000
     56      -0.6422      2.00000
     57      -0.1100      2.00000
     58       0.0201      2.00000
     59       4.2438      0.00000
     60       4.4669      0.00000
     61       5.0851      0.00000
     62       5.1680      0.00000
     63       6.5027      0.00000
     64       6.8245      0.00000
     65       7.3552      0.00000
     66       7.9338      0.00000
     67       8.7055      0.00000
     68       8.9738      0.00000
     69       9.2410      0.00000
     70       9.2440      0.00000
     71       9.5254      0.00000
     72       9.5783      0.00000
     73       9.8663      0.00000
     74       9.9559      0.00000
     75      10.1384      0.00000
     76      10.2166      0.00000

 k-point     5 :       0.2500    0.3333    0.0000
  band No.  band energies     occupation 
      1     -21.1366      2.00000
      2     -21.1040      2.00000
      3     -21.0053      2.00000
      4     -20.9793      2.00000
      5     -19.9769      2.00000
      6     -19.9676      2.00000
      7     -19.7999      2.00000
      8     -19.7851      2.00000
      9     -18.6283      2.00000
     10     -18.6214      2.00000
     11     -18.6144      2.00000
     12     -18.5985      2.00000
     13     -12.9978      2.00000
     14     -12.9710      2.00000
     15     -10.8898      2.00000
     16     -10.8642      2.00000
     17      -8.6730      2.00000
     18      -8.6597      2.00000
     19      -7.9099      2.00000
     20      -7.8425      2.00000
     21      -7.4102      2.00000
     22      -7.3170      2.00000
     23      -6.5744      2.00000
     24      -6.4922      2.00000
     25      -6.3977      2.00000
     26      -6.1757      2.00000
     27      -5.8724      2.00000
     28      -5.8467      2.00000
     29      -5.7481      2.00000
     30      -5.6159      2.00000
     31      -5.1586      2.00000
     32      -5.0466      2.00000
     33      -4.8076      2.00000
     34      -4.7052      2.00000
     35      -4.5896      2.00000
     36      -4.3408      2.00000
     37      -4.1333      2.00000
     38      -4.1075      2.00000
     39      -3.6249      2.00000
     40      -3.5786      2.00000
     41      -2.5705      2.00000
     42      -2.3628      2.00000
     43      -2.3094      2.00000
     44      -2.1792      2.00000
     45      -1.8343      2.00000
     46      -1.7637      2.00000
     47      -1.4767      2.00000
     48      -1.4354      2.00000
     49      -1.3904      2.00000
     50      -1.2585      2.00000
     51      -1.0102      2.00000
     52      -0.9027      2.00000
     53      -0.8592      2.00000
     54      -0.8226      2.00000
     55      -0.7825      2.00000
     56      -0.6078      2.00000
     57      -0.2156      2.00000
     58      -0.1431      2.00000
     59       4.2839      0.00000
     60       4.4667      0.00000
     61       5.1065      0.00000
     62       5.2090      0.00000
     63       6.6398      0.00000
     64       7.0968      0.00000
     65       7.3976      0.00000
     66       7.9377      0.00000
     67       8.3696      0.00000
     68       8.6771      0.00000
     69       9.0916      0.00000
     70       9.1924      0.00000
     71       9.3236      0.00000
     72       9.4960      0.00000
     73       9.5914      0.00000
     74       9.8161      0.00000
     75      10.2291      0.00000
     76      10.3293      0.00000

 k-point     6 :       0.5000    0.3333    0.0000
  band No.  band energies     occupation 
      1     -21.0414      2.00000
      2     -21.0410      2.00000
      3     -20.9603      2.00000
      4     -20.9599      2.00000
      5     -20.0680      2.00000
      6     -20.0676      2.00000
      7     -19.8655      2.00000
      8     -19.8650      2.00000
      9     -18.6219      2.00000
     10     -18.6206      2.00000
     11     -18.5893      2.00000
     12     -18.5879      2.00000
     13     -12.9522      2.00000
     14     -12.9507      2.00000
     15     -10.7963      2.00000
     16     -10.7949      2.00000
     17      -8.8710      2.00000
     18      -8.8699      2.00000
     19      -8.1589      2.00000
     20      -8.1583      2.00000
     21      -7.0422      2.00000
     22      -7.0412      2.00000
     23      -6.4432      2.00000
     24      -6.4423      2.00000
     25      -6.1776      2.00000
     26      -6.1769      2.00000
     27      -5.8327      2.00000
     28      -5.8320      2.00000
     29      -5.4503      2.00000
     30      -5.4499      2.00000
     31      -5.2496      2.00000
     32      -5.2492      2.00000
     33      -4.6276      2.00000
     34      -4.6275      2.00000
     35      -4.4556      2.00000
     36      -4.4548      2.00000
     37      -4.0921      2.00000
     38      -4.0912      2.00000
     39      -3.6515      2.00000
     40      -3.6493      2.00000
     41      -2.5875      2.00000
     42      -2.5862      2.00000
     43      -2.3064      2.00000
     44      -2.3060      2.00000
     45      -1.6158      2.00000
     46      -1.6150      2.00000
     47      -1.4834      2.00000
     48      -1.4831      2.00000
     49      -1.3921      2.00000
     50      -1.3913      2.00000
     51      -1.0433      2.00000
     52      -1.0429      2.00000
     53      -0.9786      2.00000
     54      -0.9783      2.00000
     55      -0.7604      2.00000
     56      -0.7596      2.00000
     57      -0.3138      2.00000
     58      -0.3132      2.00000
     59       4.4161      0.00000
     60       4.4173      0.00000
     61       5.1501      0.00000
     62       5.1510      0.00000
     63       7.0668      0.00000
     64       7.0682      0.00000
     65       7.7485      0.00000
     66       7.7487      0.00000
     67       8.2370      0.00000
     68       8.2378      0.00000
     69       8.8928      0.00000
     70       8.8950      0.00000
     71       9.3383      0.00000
     72       9.3397      0.00000
     73       9.7268      0.00000
     74       9.7278      0.00000
     75      10.0705      0.00000
     76      10.0719      0.00000

 k-point     7 :      -0.2500    0.3333    0.0000
  band No.  band energies     occupation 
      1     -21.1366      2.00000
      2     -21.1039      2.00000
      3     -21.0053      2.00000
      4     -20.9793      2.00000
      5     -19.9765      2.00000
      6     -19.9679      2.00000
      7     -19.8003      2.00000
      8     -19.7847      2.00000
      9     -18.6286      2.00000
     10     -18.6212      2.00000
     11     -18.6143      2.00000
     12     -18.5986      2.00000
     13     -12.9978      2.00000
     14     -12.9710      2.00000
     15     -10.8900      2.00000
     16     -10.8640      2.00000
     17      -8.6731      2.00000
     18      -8.6597      2.00000
     19      -7.9099      2.00000
     20      -7.8426      2.00000
     21      -7.4103      2.00000
     22      -7.3169      2.00000
     23      -6.5741      2.00000
     24      -6.4925      2.00000
     25      -6.3977      2.00000
     26      -6.1757      2.00000
     27      -5.8731      2.00000
     28      -5.8461      2.00000
     29      -5.7480      2.00000
     30      -5.6158      2.00000
     31      -5.1585      2.00000
     32      -5.0467      2.00000
     33      -4.8076      2.00000
     34      -4.7051      2.00000
     35      -4.5896      2.00000
     36      -4.3409      2.00000
     37      -4.1334      2.00000
     38      -4.1073      2.00000
     39      -3.6248      2.00000
     40      -3.5787      2.00000
     41      -2.5706      2.00000
     42      -2.3627      2.00000
     43      -2.3094      2.00000
     44      -2.1791      2.00000
     45      -1.8341      2.00000
     46      -1.7639      2.00000
     47      -1.4767      2.00000
     48      -1.4354      2.00000
     49      -1.3905      2.00000
     50      -1.2584      2.00000
     51      -1.0096      2.00000
     52      -0.9030      2.00000
     53      -0.8586      2.00000
     54      -0.8234      2.00000
     55      -0.7825      2.00000
     56      -0.6078      2.00000
     57      -0.2155      2.00000
     58      -0.1432      2.00000
     59       4.2836      0.00000
     60       4.4669      0.00000
     61       5.1067      0.00000
     62       5.2088      0.00000
     63       6.6398      0.00000
     64       7.0970      0.00000
     65       7.3974      0.00000
     66       7.9377      0.00000
     67       8.3694      0.00000
     68       8.6775      0.00000
     69       9.0916      0.00000
     70       9.1923      0.00000
     71       9.3231      0.00000
     72       9.4965      0.00000
     73       9.5923      0.00000
     74       9.8161      0.00000
     75      10.2289      0.00000
     76      10.3296      0.00000

 k-point     8 :       0.0000    0.0000    0.5000
  band No.  band energies     occupation 
      1     -21.2121      2.00000
      2     -21.2121      2.00000
      3     -21.0000      2.00000
      4     -20.9998      2.00000
      5     -19.8704      2.00000
      6     -19.8700      2.00000
      7     -19.7311      2.00000
      8     -19.7305      2.00000
      9     -18.6418      2.00000
     10     -18.6415      2.00000
     11     -18.6149      2.00000
     12     -18.6146      2.00000
     13     -13.0290      2.00000
     14     -13.0273      2.00000
     15     -10.9627      2.00000
     16     -10.9611      2.00000
     17      -8.3262      2.00000
     18      -8.3250      2.00000
     19      -7.7971      2.00000
     20      -7.7965      2.00000
     21      -7.3077      2.00000
     22      -7.3071      2.00000
     23      -6.9079      2.00000
     24      -6.9078      2.00000
     25      -6.4181      2.00000
     26      -6.4177      2.00000
     27      -6.1931      2.00000
     28      -6.1924      2.00000
     29      -5.6040      2.00000
     30      -5.6036      2.00000
     31      -5.2193      2.00000
     32      -5.2190      2.00000
     33      -4.6271      2.00000
     34      -4.6271      2.00000
     35      -4.3849      2.00000
     36      -4.3848      2.00000
     37      -4.1465      2.00000
     38      -4.1462      2.00000
     39      -3.5041      2.00000
     40      -3.5035      2.00000
     41      -2.3867      2.00000
     42      -2.3866      2.00000
     43      -2.0876      2.00000
     44      -2.0874      2.00000
     45      -1.9213      2.00000
     46      -1.9212      2.00000
     47      -1.5126      2.00000
     48      -1.5126      2.00000
     49      -1.2896      2.00000
     50      -1.2893      2.00000
     51      -0.9823      2.00000
     52      -0.9820      2.00000
     53      -0.7970      2.00000
     54      -0.7966      2.00000
     55      -0.6099      2.00000
     56      -0.6094      2.00000
     57       0.0113      2.00000
     58       0.0118      2.00000
     59       4.1435      0.00000
     60       4.1445      0.00000
     61       5.2784      0.00000
     62       5.2790      0.00000
     63       6.4654      0.00000
     64       6.4662      0.00000
     65       7.9298      0.00000
     66       7.9300      0.00000
     67       8.6968      0.00000
     68       8.6970      0.00000
     69       9.2859      0.00000
     70       9.2865      0.00000
     71       9.4471      0.00000
     72       9.4475      0.00000
     73      10.0486      0.00000
     74      10.0493      0.00000
     75      10.3752      0.00000
     76      10.3760      0.00000

 k-point     9 :       0.2500    0.0000    0.5000
  band No.  band energies     occupation 
      1     -21.1461      2.00000
      2     -21.1461      2.00000
      3     -20.9701      2.00000
      4     -20.9699      2.00000
      5     -19.9607      2.00000
      6     -19.9603      2.00000
      7     -19.7950      2.00000
      8     -19.7944      2.00000
      9     -18.6244      2.00000
     10     -18.6242      2.00000
     11     -18.6099      2.00000
     12     -18.6097      2.00000
     13     -12.9949      2.00000
     14     -12.9933      2.00000
     15     -10.8833      2.00000
     16     -10.8818      2.00000
     17      -8.6843      2.00000
     18      -8.6832      2.00000
     19      -7.8699      2.00000
     20      -7.8695      2.00000
     21      -7.3142      2.00000
     22      -7.3133      2.00000
     23      -6.5330      2.00000
     24      -6.5321      2.00000
     25      -6.3658      2.00000
     26      -6.3655      2.00000
     27      -5.9305      2.00000
     28      -5.9298      2.00000
     29      -5.6618      2.00000
     30      -5.6614      2.00000
     31      -5.1112      2.00000
     32      -5.1110      2.00000
     33      -4.6599      2.00000
     34      -4.6598      2.00000
     35      -4.3710      2.00000
     36      -4.3708      2.00000
     37      -4.1524      2.00000
     38      -4.1521      2.00000
     39      -3.5635      2.00000
     40      -3.5631      2.00000
     41      -2.4669      2.00000
     42      -2.4662      2.00000
     43      -2.0514      2.00000
     44      -2.0513      2.00000
     45      -1.9412      2.00000
     46      -1.9408      2.00000
     47      -1.4895      2.00000
     48      -1.4895      2.00000
     49      -1.2967      2.00000
     50      -1.2966      2.00000
     51      -1.0767      2.00000
     52      -1.0758      2.00000
     53      -0.8924      2.00000
     54      -0.8920      2.00000
     55      -0.7229      2.00000
     56      -0.7227      2.00000
     57      -0.0963      2.00000
     58      -0.0957      2.00000
     59       4.1481      0.00000
     60       4.1492      0.00000
     61       5.3262      0.00000
     62       5.3269      0.00000
     63       6.6633      0.00000
     64       6.6640      0.00000
     65       7.9181      0.00000
     66       7.9188      0.00000
     67       8.4430      0.00000
     68       8.4437      0.00000
     69       8.8925      0.00000
     70       8.8929      0.00000
     71       9.3328      0.00000
     72       9.3332      0.00000
     73      10.0207      0.00000
     74      10.0217      0.00000
     75      10.3535      0.00000
     76      10.3536      0.00000

 k-point    10 :       0.5000    0.0000    0.5000
  band No.  band energies     occupation 
      1     -21.0605      2.00000
      2     -21.0605      2.00000
      3     -20.9482      2.00000
      4     -20.9480      2.00000
      5     -20.0566      2.00000
      6     -20.0562      2.00000
      7     -19.8627      2.00000
      8     -19.8621      2.00000
      9     -18.6184      2.00000
     10     -18.6182      2.00000
     11     -18.5955      2.00000
     12     -18.5953      2.00000
     13     -12.9613      2.00000
     14     -12.9597      2.00000
     15     -10.8007      2.00000
     16     -10.7993      2.00000
     17      -8.8879      2.00000
     18      -8.8868      2.00000
     19      -8.1554      2.00000
     20      -8.1548      2.00000
     21      -6.9990      2.00000
     22      -6.9979      2.00000
     23      -6.4391      2.00000
     24      -6.4383      2.00000
     25      -6.2015      2.00000
     26      -6.2009      2.00000
     27      -5.9416      2.00000
     28      -5.9410      2.00000
     29      -5.4208      2.00000
     30      -5.4204      2.00000
     31      -5.2743      2.00000
     32      -5.2740      2.00000
     33      -4.4657      2.00000
     34      -4.4656      2.00000
     35      -4.4492      2.00000
     36      -4.4492      2.00000
     37      -4.0739      2.00000
     38      -4.0737      2.00000
     39      -3.6646      2.00000
     40      -3.6644      2.00000
     41      -2.5832      2.00000
     42      -2.5821      2.00000
     43      -2.0668      2.00000
     44      -2.0668      2.00000
     45      -1.7676      2.00000
     46      -1.7670      2.00000
     47      -1.5754      2.00000
     48      -1.5751      2.00000
     49      -1.2976      2.00000
     50      -1.2972      2.00000
     51      -1.1918      2.00000
     52      -1.1909      2.00000
     53      -0.9847      2.00000
     54      -0.9843      2.00000
     55      -0.8446      2.00000
     56      -0.8445      2.00000
     57      -0.2144      2.00000
     58      -0.2137      2.00000
     59       4.1797      0.00000
     60       4.1809      0.00000
     61       5.3374      0.00000
     62       5.3383      0.00000
     63       6.9802      0.00000
     64       6.9806      0.00000
     65       7.6402      0.00000
     66       7.6413      0.00000
     67       8.3330      0.00000
     68       8.3338      0.00000
     69       9.0133      0.00000
     70       9.0145      0.00000
     71       9.0199      0.00000
     72       9.0211      0.00000
     73       9.6646      0.00000
     74       9.6665      0.00000
     75      10.1740      0.00000
     76      10.1745      0.00000

 k-point    11 :       0.0000    0.3333    0.5000
  band No.  band energies     occupation 
      1     -21.1910      2.00000
      2     -21.1744      2.00000
      3     -21.0388      2.00000
      4     -21.0184      2.00000
      5     -19.8879      2.00000
      6     -19.8819      2.00000
      7     -19.7221      2.00000
      8     -19.7205      2.00000
      9     -18.6393      2.00000
     10     -18.6360      2.00000
     11     -18.6188      2.00000
     12     -18.6159      2.00000
     13     -13.0224      2.00000
     14     -13.0130      2.00000
     15     -10.9668      2.00000
     16     -10.9436      2.00000
     17      -8.3308      2.00000
     18      -8.2691      2.00000
     19      -7.8490      2.00000
     20      -7.8343      2.00000
     21      -7.3859      2.00000
     22      -7.2806      2.00000
     23      -6.9273      2.00000
     24      -6.8906      2.00000
     25      -6.4203      2.00000
     26      -6.4055      2.00000
     27      -6.0511      2.00000
     28      -6.0133      2.00000
     29      -5.7008      2.00000
     30      -5.6266      2.00000
     31      -5.2337      2.00000
     32      -5.1724      2.00000
     33      -4.7688      2.00000
     34      -4.7197      2.00000
     35      -4.3611      2.00000
     36      -4.3271      2.00000
     37      -4.1972      2.00000
     38      -4.1372      2.00000
     39      -3.6686      2.00000
     40      -3.6031      2.00000
     41      -2.4027      2.00000
     42      -2.3974      2.00000
     43      -2.1610      2.00000
     44      -2.0754      2.00000
     45      -1.9168      2.00000
     46      -1.8632      2.00000
     47      -1.4374      2.00000
     48      -1.4285      2.00000
     49      -1.3115      2.00000
     50      -1.3104      2.00000
     51      -0.9041      2.00000
     52      -0.8305      2.00000
     53      -0.7781      2.00000
     54      -0.7418      2.00000
     55      -0.6641      2.00000
     56      -0.5272      2.00000
     57      -0.1570      2.00000
     58       0.0111      2.00000
     59       4.3032      0.00000
     60       4.4529      0.00000
     61       5.0426      0.00000
     62       5.1907      0.00000
     63       6.4904      0.00000
     64       6.8565      0.00000
     65       7.2481      0.00000
     66       7.8656      0.00000
     67       8.7831      0.00000
     68       9.0900      0.00000
     69       9.2305      0.00000
     70       9.3163      0.00000
     71       9.5077      0.00000
     72       9.6466      0.00000
     73       9.8887      0.00000
     74       9.8903      0.00000
     75      10.1036      0.00000
     76      10.3053      0.00000

 k-point    12 :       0.2500    0.3333    0.5000
  band No.  band energies     occupation 
      1     -21.1266      2.00000
      2     -21.1134      2.00000
      3     -21.0005      2.00000
      4     -20.9850      2.00000
      5     -19.9767      2.00000
      6     -19.9676      2.00000
      7     -19.7971      2.00000
      8     -19.7875      2.00000
      9     -18.6293      2.00000
     10     -18.6219      2.00000
     11     -18.6088      2.00000
     12     -18.6025      2.00000
     13     -12.9874      2.00000
     14     -12.9813      2.00000
     15     -10.8834      2.00000
     16     -10.8698      2.00000
     17      -8.6883      2.00000
     18      -8.6437      2.00000
     19      -7.9173      2.00000
     20      -7.8496      2.00000
     21      -7.3704      2.00000
     22      -7.3469      2.00000
     23      -6.5513      2.00000
     24      -6.4955      2.00000
     25      -6.3279      2.00000
     26      -6.2845      2.00000
     27      -5.9107      2.00000
     28      -5.8426      2.00000
     29      -5.7013      2.00000
     30      -5.6556      2.00000
     31      -5.1029      2.00000
     32      -5.0841      2.00000
     33      -4.8052      2.00000
     34      -4.7066      2.00000
     35      -4.4187      2.00000
     36      -4.3283      2.00000
     37      -4.1882      2.00000
     38      -4.1635      2.00000
     39      -3.6577      2.00000
     40      -3.5998      2.00000
     41      -2.5054      2.00000
     42      -2.4597      2.00000
     43      -2.2617      2.00000
     44      -2.2250      2.00000
     45      -1.8245      2.00000
     46      -1.7771      2.00000
     47      -1.4696      2.00000
     48      -1.3834      2.00000
     49      -1.3630      2.00000
     50      -1.2915      2.00000
     51      -0.9722      2.00000
     52      -0.9411      2.00000
     53      -0.8616      2.00000
     54      -0.7941      2.00000
     55      -0.7290      2.00000
     56      -0.6922      2.00000
     57      -0.2343      2.00000
     58      -0.1281      2.00000
     59       4.3272      0.00000
     60       4.4474      0.00000
     61       5.0847      0.00000
     62       5.2092      0.00000
     63       6.7190      0.00000
     64       7.0083      0.00000
     65       7.4356      0.00000
     66       7.9661      0.00000
     67       8.4108      0.00000
     68       8.6645      0.00000
     69       8.8840      0.00000
     70       9.0661      0.00000
     71       9.2018      0.00000
     72       9.4259      0.00000
     73       9.6970      0.00000
     74      10.0527      0.00000
     75      10.3091      0.00000
     76      10.5047      0.00000

 k-point    13 :       0.5000    0.3333    0.5000
  band No.  band energies     occupation 
      1     -21.0408      2.00000
      2     -21.0408      2.00000
      3     -20.9606      2.00000
      4     -20.9604      2.00000
      5     -20.0672      2.00000
      6     -20.0669      2.00000
      7     -19.8666      2.00000
      8     -19.8661      2.00000
      9     -18.6182      2.00000
     10     -18.6180      2.00000
     11     -18.5914      2.00000
     12     -18.5912      2.00000
     13     -12.9521      2.00000
     14     -12.9506      2.00000
     15     -10.7958      2.00000
     16     -10.7944      2.00000
     17      -8.8684      2.00000
     18      -8.8672      2.00000
     19      -8.1681      2.00000
     20      -8.1675      2.00000
     21      -7.0360      2.00000
     22      -7.0350      2.00000
     23      -6.4422      2.00000
     24      -6.4413      2.00000
     25      -6.1652      2.00000
     26      -6.1645      2.00000
     27      -5.8598      2.00000
     28      -5.8591      2.00000
     29      -5.4573      2.00000
     30      -5.4569      2.00000
     31      -5.2426      2.00000
     32      -5.2422      2.00000
     33      -4.6249      2.00000
     34      -4.6246      2.00000
     35      -4.4426      2.00000
     36      -4.4422      2.00000
     37      -4.0513      2.00000
     38      -4.0510      2.00000
     39      -3.6847      2.00000
     40      -3.6842      2.00000
     41      -2.5794      2.00000
     42      -2.5782      2.00000
     43      -2.3350      2.00000
     44      -2.3346      2.00000
     45      -1.6413      2.00000
     46      -1.6409      2.00000
     47      -1.4708      2.00000
     48      -1.4705      2.00000
     49      -1.3211      2.00000
     50      -1.3206      2.00000
     51      -1.0792      2.00000
     52      -1.0783      2.00000
     53      -0.9904      2.00000
     54      -0.9897      2.00000
     55      -0.7828      2.00000
     56      -0.7823      2.00000
     57      -0.2889      2.00000
     58      -0.2883      2.00000
     59       4.4192      0.00000
     60       4.4205      0.00000
     61       5.1472      0.00000
     62       5.1481      0.00000
     63       7.1353      0.00000
     64       7.1358      0.00000
     65       7.7952      0.00000
     66       7.7959      0.00000
     67       8.1144      0.00000
     68       8.1156      0.00000
     69       8.8497      0.00000
     70       8.8510      0.00000
     71       9.1367      0.00000
     72       9.1377      0.00000
     73       9.8318      0.00000
     74       9.8327      0.00000
     75      10.3278      0.00000
     76      10.3287      0.00000

 k-point    14 :      -0.2500    0.3333    0.5000
  band No.  band energies     occupation 
      1     -21.1266      2.00000
      2     -21.1134      2.00000
      3     -21.0005      2.00000
      4     -20.9850      2.00000
      5     -19.9763      2.00000
      6     -19.9679      2.00000
      7     -19.7976      2.00000
      8     -19.7869      2.00000
      9     -18.6295      2.00000
     10     -18.6217      2.00000
     11     -18.6086      2.00000
     12     -18.6027      2.00000
     13     -12.9871      2.00000
     14     -12.9815      2.00000
     15     -10.8838      2.00000
     16     -10.8694      2.00000
     17      -8.6882      2.00000
     18      -8.6437      2.00000
     19      -7.9173      2.00000
     20      -7.8497      2.00000
     21      -7.3709      2.00000
     22      -7.3464      2.00000
     23      -6.5508      2.00000
     24      -6.4961      2.00000
     25      -6.3282      2.00000
     26      -6.2843      2.00000
     27      -5.9106      2.00000
     28      -5.8428      2.00000
     29      -5.7011      2.00000
     30      -5.6557      2.00000
     31      -5.1029      2.00000
     32      -5.0842      2.00000
     33      -4.8051      2.00000
     34      -4.7066      2.00000
     35      -4.4187      2.00000
     36      -4.3283      2.00000
     37      -4.1884      2.00000
     38      -4.1634      2.00000
     39      -3.6575      2.00000
     40      -3.6000      2.00000
     41      -2.5057      2.00000
     42      -2.4594      2.00000
     43      -2.2617      2.00000
     44      -2.2249      2.00000
     45      -1.8245      2.00000
     46      -1.7772      2.00000
     47      -1.4697      2.00000
     48      -1.3835      2.00000
     49      -1.3631      2.00000
     50      -1.2913      2.00000
     51      -0.9716      2.00000
     52      -0.9413      2.00000
     53      -0.8622      2.00000
     54      -0.7939      2.00000
     55      -0.7290      2.00000
     56      -0.6922      2.00000
     57      -0.2341      2.00000
     58      -0.1283      2.00000
     59       4.3269      0.00000
     60       4.4476      0.00000
     61       5.0850      0.00000
     62       5.2090      0.00000
     63       6.7190      0.00000
     64       7.0082      0.00000
     65       7.4358      0.00000
     66       7.9661      0.00000
     67       8.4102      0.00000
     68       8.6648      0.00000
     69       8.8837      0.00000
     70       9.0667      0.00000
     71       9.2024      0.00000
     72       9.4252      0.00000
     73       9.6975      0.00000
     74      10.0522      0.00000
     75      10.3097      0.00000
     76      10.5043      0.00000


--------------------------------------------------------------------------------------------------------


 soft charge-density along one line, spin component           1
         0         1         2         3         4         5         6         7         8         9
 total charge-density along one line
 
 pseudopotential strength for first ion, spin component:           1
  1.176   5.289  -0.001  -0.000  -0.000
  5.289  22.713  -0.004  -0.001  -0.002
 -0.001  -0.004  -0.349  -0.000  -0.000
 -0.000  -0.001  -0.000  -0.349  -0.000
 -0.000  -0.002  -0.000  -0.000  -0.349
 total augmentation occupancy for first ion, spin component:           1
  1.093  -0.030   0.024   0.004   0.003
 -0.030   0.001  -0.001  -0.000   0.000
  0.024  -0.001   0.096   0.004  -0.005
  0.004  -0.000   0.004   0.102   0.001
  0.003   0.000  -0.005   0.001   0.105


------------------------ aborting loop because EDIFF is reached ----------------------------------------


 


 total charge     
 
# of ion       s       p       d       tot
------------------------------------------
    1        0.105   0.219   0.000   0.324
    2        0.105   0.219   0.000   0.324
    3        0.105   0.219   0.000   0.324
    4        0.105   0.219   0.000   0.324
    5        0.565   0.121   0.000   0.685
    6        0.564   0.120   0.000   0.685
    7        0.564   0.120   0.000   0.685
    8        0.564   0.120   0.000   0.685
    9        0.647   0.045   0.000   0.693
   10        0.647   0.045   0.000   0.693
   11        0.647   0.045   0.000   0.693
   12        0.647   0.045   0.000   0.693
   13        0.868   1.693   0.000   2.561
   14        0.868   1.692   0.000   2.560
   15        0.868   1.692   0.000   2.560
   16        0.868   1.692   0.000   2.561
   17        0.834   1.704   0.000   2.538
   18        0.834   1.704   0.000   2.538
   19        0.834   1.704   0.000   2.538
   20        0.834   1.704   0.000   2.537
   21        1.553   3.625   0.000   5.178
   22        1.553   3.625   0.000   5.178
   23        1.553   3.625   0.000   5.178
   24        1.553   3.625   0.000   5.178
   25        1.567   3.606   0.000   5.173
   26        1.568   3.605   0.000   5.173
   27        1.568   3.605   0.000   5.173
   28        1.568   3.606   0.000   5.173
   29        1.570   3.596   0.000   5.166
   30        1.570   3.596   0.000   5.165
   31        1.570   3.596   0.000   5.165
   32        1.570   3.596   0.000   5.166
--------------------------------------------------
tot         30.835  58.431   0.000  89.266
 
    CHARGE:  cpu time    0.0414: real time    0.0415
    FORLOC:  cpu time    0.0037: real time    0.0037
    FORNL :  cpu time    0.2166: real time    0.2173
    STRESS:  cpu time    0.3477: real time    0.3485
    FORCOR:  cpu time    0.0176: real time    0.0182
    FORHAR:  cpu time    0.0071: real time    0.0073
    MIXING:  cpu time    0.0008: real time    0.0009
    OFIELD:  cpu time    0.0001: real time    0.0001

 ---------------------------------------------------------------------------------------------

         DFTD3 V3.0 Rev 1        
 IVDW         = 12
 DF pbe       
 parameters
 VDW_S6       =    1.0000
 VDW_S8       =    0.7875
 VDW_A1       =    0.4289
 VDW_A2       =    4.4407
 k1-k3        =   16.0000    1.3333   -4.0000
 VDW_RADIUS   =   50.2022 A
 VDW_CNRADIUS =   21.1671 A
 Edisp (eV)   -2.81056

 E6    (eV) :    -2.0117
 E8    (eV) :    -0.7988
 % E8        : 28.42
    FORVDW:  cpu time    0.2134: real time    0.2417

  FORCE on cell =-STRESS in cart. coord.  units (eV):
  Direction    XX          YY          ZZ          XY          YZ          ZX
  --------------------------------------------------------------------------------------
  Alpha Z   189.17928   189.17928   189.17928
  Ewald    -118.33636 -1638.74309 -1953.71367    -0.01322   591.12100     0.03459
  Hartree  1363.29090   828.02971   530.12340    -0.00237   270.99804     0.02254
  E(xc)    -513.29001  -519.07075  -518.51666     0.00003     2.25814    -0.00016
  Local   -2713.91407  -859.65151  -198.91362     0.01425  -849.65862    -0.05763
  n-local  -340.77349  -336.31415  -335.04709     0.00279   -12.22973     0.00202
  augment    72.84694    83.64375    80.03179    -0.00067     1.92691    -0.00056
  Kinetic  2063.18296  2255.21839  2209.36976    -0.01944    -5.02043    -0.00864
  Fock        0.00000     0.00000     0.00000     0.00000     0.00000     0.00000
  vdW        -2.15504    -2.25454    -2.52329     0.00021     0.52543     0.00031
  -------------------------------------------------------------------------------------
  Total       0.03111     0.03708    -0.01011    -0.01842    -0.07926    -0.00753
  in kB       0.17217     0.20518    -0.05595    -0.10195    -0.43864    -0.04168
  external pressure =        0.11 kB  Pullay stress =        0.00 kB


 VOLUME and BASIS-vectors are now :
 -----------------------------------------------------------------------------
  energy-cutoff  :      520.00
  volume of cell :      289.52
      direct lattice vectors                 reciprocal lattice vectors
     5.005236380  0.000158146  0.000003980     0.199790764 -0.000005531  0.000000453
     0.000182246  6.527885149 -0.678075513    -0.000004839  0.153170091 -0.000181746
    -0.000019796  0.010512922  8.859977712    -0.000000460  0.011722477  0.112853192

  length of vectors
     5.005236382  6.563007767  8.859983949     0.199790764  0.153170199  0.113460387


 FORCES acting on ions
    electron-ion (+dipol)            ewald-force                    non-local-force                 convergence-correction
 -----------------------------------------------------------------------------------------------
   -.586E+00 0.606E+01 -.581E+00   0.647E+00 -.584E+01 0.626E+00   -.426E-01 -.269E+00 -.355E-01   -.186E-05 -.759E-05 -.176E-04
   -.577E+00 -.605E+01 0.569E+00   0.639E+00 0.583E+01 -.615E+00   -.456E-01 0.266E+00 0.378E-01   0.170E-05 0.387E-05 -.160E-04
   0.556E+00 -.605E+01 0.562E+00   -.618E+00 0.583E+01 -.608E+00   0.493E-01 0.266E+00 0.381E-01   -.204E-06 0.916E-05 0.148E-04
   0.609E+00 0.606E+01 -.590E+00   -.668E+00 -.584E+01 0.634E+00   0.383E-01 -.270E+00 -.349E-01   0.399E-06 -.506E-05 0.191E-04
   0.513E+02 0.135E+02 0.233E+02   -.570E+02 -.147E+02 -.275E+02   0.568E+01 0.114E+01 0.422E+01   -.343E-05 -.134E-04 0.364E-05
   0.513E+02 -.135E+02 -.232E+02   -.569E+02 0.147E+02 0.274E+02   0.568E+01 -.114E+01 -.421E+01   -.678E-05 0.844E-05 -.174E-04
   -.512E+02 -.135E+02 -.232E+02   0.569E+02 0.147E+02 0.274E+02   -.568E+01 -.114E+01 -.421E+01   0.702E-05 0.161E-04 0.345E-04
   -.513E+02 0.135E+02 0.233E+02   0.569E+02 -.147E+02 -.275E+02   -.568E+01 0.114E+01 0.421E+01   0.318E-05 -.121E-04 -.109E-04
   -.376E+02 -.109E+02 -.425E+02   0.414E+02 0.125E+02 0.465E+02   -.389E+01 -.166E+01 -.403E+01   -.407E-05 -.513E-06 -.999E-05
   -.376E+02 0.109E+02 0.425E+02   0.415E+02 -.126E+02 -.465E+02   -.390E+01 0.166E+01 0.403E+01   -.304E-05 0.532E-06 -.265E-04
   0.376E+02 0.109E+02 0.425E+02   -.415E+02 -.126E+02 -.465E+02   0.390E+01 0.166E+01 0.403E+01   -.613E-05 0.449E-05 0.319E-04
   0.376E+02 -.109E+02 -.425E+02   -.414E+02 0.125E+02 0.465E+02   0.389E+01 -.166E+01 -.403E+01   0.457E-05 -.185E-05 -.179E-05
   0.101E+02 -.113E+02 -.355E+02   -.129E+02 0.153E+02 0.392E+02   0.276E+01 -.412E+01 -.383E+01   -.829E-05 -.895E-04 0.948E-04
   0.981E+01 0.114E+02 0.356E+02   -.126E+02 -.154E+02 -.394E+02   0.275E+01 0.413E+01 0.384E+01   0.241E-04 0.622E-04 0.808E-05
   -.984E+01 0.113E+02 0.356E+02   0.126E+02 -.153E+02 -.394E+02   -.275E+01 0.412E+01 0.384E+01   -.241E-04 0.419E-04 0.209E-04
   -.101E+02 -.113E+02 -.355E+02   0.128E+02 0.154E+02 0.393E+02   -.276E+01 -.412E+01 -.383E+01   0.101E-04 -.523E-04 -.128E-03
   -.586E+02 -.911E+01 -.411E+02   0.639E+02 0.112E+02 0.393E+02   -.537E+01 -.211E+01 0.171E+01   -.221E-04 0.133E-04 0.392E-04
   -.587E+02 0.908E+01 0.411E+02   0.640E+02 -.112E+02 -.394E+02   -.536E+01 0.211E+01 -.171E+01   -.306E-05 -.144E-04 -.790E-04
   0.586E+02 0.909E+01 0.411E+02   -.640E+02 -.112E+02 -.394E+02   0.536E+01 0.210E+01 -.171E+01   -.110E-04 0.327E-04 0.150E-03
   0.586E+02 -.909E+01 -.411E+02   -.640E+02 0.112E+02 0.393E+02   0.537E+01 -.211E+01 0.171E+01   -.211E-04 0.657E-05 -.573E-04
   0.784E+02 0.579E+02 -.139E+03   -.828E+02 -.626E+02 0.175E+03   0.442E+01 0.475E+01 -.366E+02   -.630E-04 -.659E-04 -.915E-04
   0.783E+02 -.578E+02 0.139E+03   -.828E+02 0.626E+02 -.175E+03   0.446E+01 -.473E+01 0.366E+02   0.167E-04 0.462E-04 -.165E-03
   -.784E+02 -.578E+02 0.139E+03   0.828E+02 0.626E+02 -.175E+03   -.446E+01 -.474E+01 0.366E+02   -.281E-04 0.784E-04 0.266E-03
   -.783E+02 0.579E+02 -.139E+03   0.828E+02 -.626E+02 0.175E+03   -.443E+01 0.475E+01 -.366E+02   -.148E-04 -.595E-04 0.811E-04
   0.103E+03 0.137E+03 0.124E+03   -.128E+03 -.161E+03 -.146E+03   0.246E+02 0.246E+02 0.218E+02   -.572E-04 -.102E-03 0.200E-03
   0.103E+03 -.137E+03 -.124E+03   -.128E+03 0.162E+03 0.146E+03   0.247E+02 -.246E+02 -.218E+02   0.564E-04 0.149E-03 0.183E-03
   -.103E+03 -.137E+03 -.124E+03   0.128E+03 0.161E+03 0.146E+03   -.246E+02 -.246E+02 -.218E+02   -.194E-04 0.314E-04 -.727E-04
   -.103E+03 0.137E+03 0.124E+03   0.128E+03 -.162E+03 -.146E+03   -.246E+02 0.246E+02 0.218E+02   0.670E-04 -.140E-03 -.237E-03
   -.170E+03 0.461E+02 0.135E+02   0.210E+03 -.476E+02 -.149E+02   -.406E+02 0.146E+01 0.137E+01   0.522E-04 -.137E-03 0.229E-03
   -.169E+03 -.462E+02 -.136E+02   0.210E+03 0.477E+02 0.150E+02   -.406E+02 -.150E+01 -.142E+01   -.420E-04 0.744E-04 -.412E-04
   0.169E+03 -.462E+02 -.136E+02   -.210E+03 0.476E+02 0.150E+02   0.406E+02 -.149E+01 -.142E+01   0.209E-04 0.111E-03 0.195E-04
   0.170E+03 0.461E+02 0.135E+02   -.210E+03 -.476E+02 -.149E+02   0.406E+02 0.146E+01 0.139E+01   0.286E-04 -.124E-03 -.252E-03
 -----------------------------------------------------------------------------------------------
   0.158E-01 -.596E-02 0.553E-01   0.284E-13 0.853E-13 0.782E-13   -.158E-01 0.628E-02 -.554E-01   -.467E-04 -.136E-03 0.172E-03
 
 
 POSITION                                       TOTAL-FORCE (eV/Angst)
 -----------------------------------------------------------------------------------
      4.19732      0.85241      2.23870         0.008594     -0.011080      0.009382
      1.69505      5.68120      1.51320         0.006302      0.008384     -0.008040
      0.80761      5.68640      5.94311        -0.003687      0.008482     -0.007884
      3.31090      0.85759      6.66865        -0.011525     -0.011073      0.009212
      3.29319      2.00410      0.18241        -0.003841      0.006538      0.009334
      0.78957      4.52935      3.56925         0.003171     -0.008315     -0.004812
      1.71325      4.53479      7.99929        -0.005429     -0.009192     -0.007191
      4.21505      2.00942      4.61251        -0.000064      0.007308      0.009253
      0.92887      2.96284      0.84907        -0.009921     -0.005356     -0.016836
      3.43184      3.57048      2.90339        -0.012435      0.001323      0.006331
      4.07627      3.57562      7.33350         0.010488      0.003873      0.004795
      1.57364      2.96797      5.27921         0.010715     -0.002424     -0.015379
      0.84629      1.60299      8.04561        -0.007240     -0.010320      0.013238
      3.34964      4.94055      4.56594        -0.009091      0.016976     -0.007911
      4.15878      4.93540      0.13588        -0.000224      0.018656     -0.002304
      1.65616      1.59770      3.61572         0.007210     -0.002558      0.018156
      0.19297      2.64816      0.09349        -0.005054      0.012827      0.004843
      2.69531      3.88517      3.65810         0.003695     -0.015387      0.009698
      4.81269      3.89060      8.08812         0.001234     -0.017026      0.007033
      2.30970      2.65364      4.52371         0.004715      0.005910     -0.002805
      4.07043      2.15565      0.80368        -0.006906     -0.000776      0.010893
      1.56728      4.37735      2.94837        -0.002392      0.006429     -0.019581
      0.93544      4.38276      7.37838         0.006114      0.004999     -0.017551
      3.43761      2.16101      5.23371         0.007413     -0.001902      0.012156
      0.09627      0.84292      7.35749         0.001546     -0.001458      0.009030
      2.59873      5.70001      5.25367         0.008676      0.009951     -0.002835
      4.90935      5.69489      0.82406        -0.008896      0.006090     -0.007711
      2.40638      0.83792      2.92778         0.001157     -0.007697      0.003974
      2.11494      1.55645      8.00417         0.026675     -0.005885     -0.003292
      4.61866      4.98795      4.60827        -0.003635     -0.002723     -0.007368
      2.88969      4.98253      0.17806         0.003733     -0.000209     -0.005578
      0.38743      1.55102      3.57402        -0.021099     -0.004369     -0.000252
 -----------------------------------------------------------------------------------
    total drift:                                0.000030      0.000179      0.000138


--------------------------------------------------------------------------------------------------------



  FREE ENERGIE OF THE ION-ELECTRON SYSTEM (eV)
  ---------------------------------------------------
  free  energy   TOTEN  =      -206.18889780 eV

  energy  without entropy=     -206.18889780  energy(sigma->0) =     -206.18889780
 


--------------------------------------------------------------------------------------------------------


    POTLOK:  cpu time    0.0215: real time    0.0218


--------------------------------------------------------------------------------------------------------


 stress matrix after NEB project (eV)
      0.03111     -0.01842     -0.00753
     -0.01842      0.03708     -0.07926
     -0.00753     -0.07926     -0.01011
  FORCES: max atom, RMS     0.027514    0.015930
  FORCE total and by dimension    0.090112    0.026675
  Stress total and by dimension    0.125709    0.079264
 writing wavefunctions
     LOOP+:  cpu time    4.2669: real time    4.4294
    4ORBIT:  cpu time    0.0000: real time    0.0000
 


 total charge     
 
# of ion       s       p       d       tot
------------------------------------------
    1        0.105   0.219   0.000   0.324
    2        0.105   0.219   0.000   0.324
    3        0.105   0.219   0.000   0.324
    4        0.105   0.219   0.000   0.324
    5        0.565   0.121   0.000   0.685
    6        0.564   0.120   0.000   0.685
    7        0.564   0.120   0.000   0.685
    8        0.564   0.120   0.000   0.685
    9        0.647   0.045   0.000   0.693
   10        0.647   0.045   0.000   0.693
   11        0.647   0.045   0.000   0.693
   12        0.647   0.045   0.000   0.693
   13        0.868   1.693   0.000   2.561
   14        0.868   1.692   0.000   2.560
   15        0.868   1.692   0.000   2.560
   16        0.868   1.692   0.000   2.561
   17        0.834   1.704   0.000   2.538
   18        0.834   1.704   0.000   2.538
   19        0.834   1.704   0.000   2.538
   20        0.834   1.704   0.000   2.537
   21        1.553   3.625   0.000   5.178
   22        1.553   3.625   0.000   5.178
   23        1.553   3.625   0.000   5.178
   24        1.553   3.625   0.000   5.178
   25        1.567   3.606   0.000   5.173
   26        1.568   3.605   0.000   5.173
   27        1.568   3.605   0.000   5.173
   28        1.568   3.606   0.000   5.173
   29        1.570   3.596   0.000   5.166
   30        1.570   3.596   0.000   5.165
   31        1.570   3.596   0.000   5.165
   32        1.570   3.596   0.000   5.166
--------------------------------------------------
tot         30.835  58.431   0.000  89.266
 

 total amount of memory used by VASP MPI-rank0    37753. kBytes
=======================================================================

   base      :      30000. kBytes
   nonl-proj :       1359. kBytes
   fftplans  :       1123. kBytes
   grid      :       2320. kBytes
   one-center:          6. kBytes
   wavefun   :       2945. kBytes
 
  
  
 General timing and accounting informations for this job:
 ========================================================
  
                  Total CPU time used (sec):       17.304
                            User time (sec):        8.118
                          System time (sec):        9.186
                         Elapsed time (sec):       18.144
  
                   Maximum memory used (kb):      168536.
                   Average memory used (kb):           0.
  
                          Minor page faults:        21001
                          Major page faults:            0
                 Voluntary context switches:         1569
