PROCAR lm decomposed
# of k-points:   14         # of bands:   76         # of ions:   32

 k-point     1 :    0.00000000 0.00000000 0.00000000     weight = 0.04166667

band     1 # energy  -21.24404433 # occ.  2.00000000
 
ion      s     py     pz     px    dxy    dyz    dz2    dxz  x2-y2    tot
    1  0.001  0.000  0.000  0.000  0.000  0.000  0.000  0.000  0.000  0.001
    2  0.001  0.000  0.000  0.000  0.000  0.000  0.000  0.000  0.000  0.001
    3  0.001  0.000  0.000  0.000  0.000  0.000  0.000  0.000  0.000  0.001
    4  0.001  0.000  0.000  0.000  0.000  0.000  0.000  0.000  0.000  0.001
    5  0.003  0.000  0.000  0.000  0.000  0.000  0.000  0.000  0.000  0.004
    6  0.003  0.000  0.000  0.000  0.000  0.000  0.000  0.000  0.000  0.004
    7  0.003  0.000  0.000  0.000  0.000  0.000  0.000  0.000  0.000  0.004
    8  0.003  0.000  0.000  0.000  0.000  0.000  0.000  0.000  0.000  0.004
    9  0.000  0.000  0.000  0.000  0.000  0.000  0.000  0.000  0.000  0.001
   10  0.000  0.000  0.000  0.000  0.000  0.000  0.000  0.000  0.000  0.001
   11  0.000  0.000  0.000  0.000  0.000  0.000  0.000  0.000  0.000  0.001
   12  0.000  0.000  0.000  0.000  0.000  0.000  0.000  0.000  0.000  0.001
   13  0.046  0.002  0.001  0.001  0.000  0.000  0.000  0.000  0.000  0.049
   14  0.045  0.002  0.001  0.001  0.000  0.000  0.000  0.000  0.000  0.048
   15  0.045  0.002  0.001  0.001  0.000  0.000  0.000  0.000  0.000  0.048
   16  0.046  0.002  0.001  0.001  0.000  0.000  0.000  0.000  0.000  0.049
   17  0.009  0.000  0.000  0.000  0.000  0.000  0.000  0.000  0.000  0.010
   18  0.009  0.000  0.000  0.000  0.000  0.000  0.000  0.000  0.000  0.009
   19  0.009  0.000  0.000  0.000  0.000  0.000  0.000  0.000  0.000  0.010
   20  0.009  0.000  0.000  0.000  0.000  0.000  0.000  0.000  0.000  0.010
   21  0.025  0.000  0.001  0.000  0.000  0.000  0.000  0.000  0.000  0.026
   22  0.024  0.000  0.001  0.000  0.000  0.000  0.000  0.000  0.000  0.026
   23  0.024  0.000  0.001  0.000  0.000  0.000  0.000  0.000  0.000  0.026
   24  0.025  0.000  0.001  0.000  0.000  0.000  0.000  0.000  0.000  0.026
   25  0.055  0.002  0.002  0.003  0.000  0.000  0.000  0.000  0.000  0.062
   26  0.054  0.002  0.002  0.003  0.000  0.000  0.000  0.000  0.000  0.061
   27  0.054  0.002  0.002  0.003  0.000  0.000  0.000  0.000  0.000  0.061
   28  0.055  0.002  0.002  0.003  0.000  0.000  0.000  0.000  0.000  0.062
   29  0.058  0.000  0.000  0.007  0.000  0.000  0.000  0.000  0.000  0.065
   30  0.057  0.000  0.000  0.006  0.000  0.000  0.000  0.000  0.000  0.063
   31  0.057  0.000  0.000  0.006  0.000  0.000  0.000  0.000  0.000  0.063
   32  0.058  0.000  0.000  0.007  0.000  0.000  0.000  0.000  0.000  0.065
tot    0.781  0.016  0.018  0.042  0.000  0.000  0.000  0.000  0.000  0.858
 
band     2 # energy  -21.17675896 # occ.  2.00000000
 
ion      s     py     pz     px    dxy    dyz    dz2    dxz  x2-y2    tot
    1  0.000  0.000  0.000  0.000  0.000  0.000  0.000  0.000  0.000  0.000
    2  0.000  0.000  0.000  0.000  0.000  0.000  0.000  0.000  0.000  0.000
    3  0.000  0.000  0.000  0.000  0.000  0.000  0.000  0.000  0.000  0.000
    4  0.000  0.000  0.000  0.000  0.000  0.000  0.000  0.000  0.000  0.000
    5  0.003  0.000  0.000  0.000  0.000  0.000  0.000  0.000  0.000  0.003
    6  0.003  0.000  0.000  0.000  0.000  0.000  0.000  0.000  0.000  0.003
    7  0.003  0.000  0.000  0.000  0.000  0.000  0.000  0.000  0.000  0.003
    8  0.003  0.000  0.000  0.000  0.000  0.000  0.000  0.000  0.000  0.003
    9  0.000  0.000  0.000  0.000  0.000  0.000  0.000  0.000  0.000  0.000
   10  0.000  0.000  0.000  0.000  0.000  0.000  0.000  0.000  0.000  0.000
   11  0.000  0.000  0.000  0.000  0.000  0.000  0.000  0.000  0.000  0.000
   12  0.000  0.000  0.000  0.000  0.000  0.000  0.000  0.000  0.000  0.000
   13  0.047  0.002  0.001  0.001  0.000  0.000  0.000  0.000  0.000  0.051
   14  0.046  0.002  0.001  0.001  0.000  0.000  0.000  0.000  0.000  0.050
   15  0.046  0.002  0.001  0.001  0.000  0.000  0.000  0.000  0.000  0.050
   16  0.047  0.002  0.001  0.001  0.000  0.000  0.000  0.000  0.000  0.051
   17  0.009  0.000  0.000  0.000  0.000  0.000  0.000  0.000  0.000  0.009
   18  0.009  0.000  0.000  0.000  0.000  0.000  0.000  0.000  0.000  0.009
   19  0.009  0.000  0.000  0.000  0.000  0.000  0.000  0.000  0.000  0.009
   20  0.009  0.000  0.000  0.000  0.000  0.000  0.000  0.000  0.000  0.009
   21  0.022  0.000  0.001  0.000  0.000  0.000  0.000  0.000  0.000  0.024
   22  0.022  0.000  0.001  0.000  0.000  0.000  0.000  0.000  0.000  0.023
   23  0.022  0.000  0.001  0.000  0.000  0.000  0.000  0.000  0.000  0.023
   24  0.022  0.000  0.001  0.000  0.000  0.000  0.000  0.000  0.000  0.023
   25  0.056  0.002  0.002  0.003  0.000  0.000  0.000  0.000  0.000  0.063
   26  0.054  0.002  0.002  0.003  0.000  0.000  0.000  0.000  0.000  0.062
   27  0.054  0.002  0.002  0.003  0.000  0.000  0.000  0.000  0.000  0.061
   28  0.056  0.002  0.002  0.003  0.000  0.000  0.000  0.000  0.000  0.063
   29  0.061  0.000  0.000  0.007  0.000  0.000  0.000  0.000  0.000  0.068
   30  0.059  0.000  0.000  0.007  0.000  0.000  0.000  0.000  0.000  0.066
   31  0.059  0.000  0.000  0.007  0.000  0.000  0.000  0.000  0.000  0.065
   32  0.061  0.000  0.000  0.007  0.000  0.000  0.000  0.000  0.000  0.068
tot    0.783  0.017  0.020  0.044  0.000  0.000  0.000  0.000  0.000  0.864
 
band     3 # energy  -21.00365822 # occ.  2.00000000
 
ion      s     py     pz     px    dxy    dyz    dz2    dxz  x2-y2    tot
    1  0.000  0.000  0.000  0.000  0.000  0.000  0.000  0.000  0.000  0.001
    2  0.000  0.000  0.000  0.000  0.000  0.000  0.000  0.000  0.000  0.001
    3  0.000  0.000  0.000  0.000  0.000  0.000  0.000  0.000  0.000  0.001
    4  0.000  0.000  0.000  0.000  0.000  0.000  0.000  0.000  0.000  0.001
    5  0.001  0.000  0.000  0.000  0.000  0.000  0.000  0.000  0.000  0.001
    6  0.001  0.000  0.000  0.000  0.000  0.000  0.000  0.000  0.000  0.002
    7  0.001  0.000  0.000  0.000  0.000  0.000  0.000  0.000  0.000  0.001
    8  0.001  0.000  0.000  0.000  0.000  0.000  0.000  0.000  0.000  0.001
    9  0.000  0.000  0.000  0.000  0.000  0.000  0.000  0.000  0.000  0.000
   10  0.000  0.000  0.000  0.000  0.000  0.000  0.000  0.000  0.000  0.000
   11  0.000  0.000  0.000  0.000  0.000  0.000  0.000  0.000  0.000  0.000
   12  0.000  0.000  0.000  0.000  0.000  0.000  0.000  0.000  0.000  0.000
   13  0.050  0.002  0.002  0.001  0.000  0.000  0.000  0.000  0.000  0.055
   14  0.053  0.003  0.002  0.001  0.000  0.000  0.000  0.000  0.000  0.059
   15  0.050  0.002  0.002  0.001  0.000  0.000  0.000  0.000  0.000  0.056
   16  0.052  0.003  0.002  0.001  0.000  0.000  0.000  0.000  0.000  0.058
   17  0.002  0.001  0.000  0.000  0.000  0.000  0.000  0.000  0.000  0.003
   18  0.002  0.001  0.000  0.000  0.000  0.000  0.000  0.000  0.000  0.003
   19  0.002  0.001  0.000  0.000  0.000  0.000  0.000  0.000  0.000  0.003
   20  0.002  0.001  0.000  0.000  0.000  0.000  0.000  0.000  0.000  0.003
   21  0.008  0.000  0.000  0.000  0.000  0.000  0.000  0.000  0.000  0.008
   22  0.008  0.000  0.000  0.000  0.000  0.000  0.000  0.000  0.000  0.009
   23  0.008  0.000  0.000  0.000  0.000  0.000  0.000  0.000  0.000  0.008
   24  0.008  0.000  0.000  0.000  0.000  0.000  0.000  0.000  0.000  0.008
   25  0.063  0.003  0.002  0.003  0.000  0.000  0.000  0.000  0.000  0.071
   26  0.068  0.003  0.002  0.004  0.000  0.000  0.000  0.000  0.000  0.076
   27  0.064  0.003  0.002  0.003  0.000  0.000  0.000  0.000  0.000  0.073
   28  0.067  0.003  0.002  0.004  0.000  0.000  0.000  0.000  0.000  0.075
   29  0.067  0.000  0.000  0.008  0.000  0.000  0.000  0.000  0.000  0.074
   30  0.071  0.000  0.000  0.008  0.000  0.000  0.000  0.000  0.000  0.080
   31  0.068  0.000  0.000  0.008  0.000  0.000  0.000  0.000  0.000  0.076
   32  0.070  0.000  0.000  0.008  0.000  0.000  0.000  0.000  0.000  0.078
tot    0.791  0.025  0.019  0.051  0.000  0.000  0.000  0.000  0.000  0.885
 
band     4 # energy  -20.99870340 # occ.  2.00000000
 
ion      s     py     pz     px    dxy    dyz    dz2    dxz  x2-y2    tot
    1  0.000  0.000  0.000  0.000  0.000  0.000  0.000  0.000  0.000  0.001
    2  0.000  0.000  0.000  0.000  0.000  0.000  0.000  0.000  0.000  0.001
    3  0.000  0.000  0.000  0.000  0.000  0.000  0.000  0.000  0.000  0.001
    4  0.000  0.000  0.000  0.000  0.000  0.000  0.000  0.000  0.000  0.001
    5  0.001  0.000  0.000  0.000  0.000  0.000  0.000  0.000  0.000  0.001
    6  0.001  0.000  0.000  0.000  0.000  0.000  0.000  0.000  0.000  0.001
    7  0.001  0.000  0.000  0.000  0.000  0.000  0.000  0.000  0.000  0.001
    8  0.001  0.000  0.000  0.000  0.000  0.000  0.000  0.000  0.000  0.001
    9  0.000  0.000  0.000  0.000  0.000  0.000  0.000  0.000  0.000  0.000
   10  0.000  0.000  0.000  0.000  0.000  0.000  0.000  0.000  0.000  0.000
   11  0.000  0.000  0.000  0.000  0.000  0.000  0.000  0.000  0.000  0.000
   12  0.000  0.000  0.000  0.000  0.000  0.000  0.000  0.000  0.000  0.000
   13  0.053  0.003  0.002  0.001  0.000  0.000  0.000  0.000  0.000  0.058
   14  0.051  0.003  0.002  0.001  0.000  0.000  0.000  0.000  0.000  0.057
   15  0.054  0.003  0.002  0.001  0.000  0.000  0.000  0.000  0.000  0.060
   16  0.050  0.002  0.002  0.001  0.000  0.000  0.000  0.000  0.000  0.055
   17  0.002  0.001  0.000  0.000  0.000  0.000  0.000  0.000  0.000  0.003
   18  0.002  0.001  0.000  0.000  0.000  0.000  0.000  0.000  0.000  0.003
   19  0.002  0.001  0.000  0.000  0.000  0.000  0.000  0.000  0.000  0.003
   20  0.002  0.001  0.000  0.000  0.000  0.000  0.000  0.000  0.000  0.002
   21  0.005  0.000  0.000  0.000  0.000  0.000  0.000  0.000  0.000  0.006
   22  0.005  0.000  0.000  0.000  0.000  0.000  0.000  0.000  0.000  0.006
   23  0.006  0.000  0.000  0.000  0.000  0.000  0.000  0.000  0.000  0.006
   24  0.005  0.000  0.000  0.000  0.000  0.000  0.000  0.000  0.000  0.005
   25  0.068  0.003  0.002  0.004  0.000  0.000  0.000  0.000  0.000  0.077
   26  0.067  0.003  0.002  0.003  0.000  0.000  0.000  0.000  0.000  0.075
   27  0.070  0.003  0.002  0.004  0.000  0.000  0.000  0.000  0.000  0.079
   28  0.065  0.003  0.002  0.003  0.000  0.000  0.000  0.000  0.000  0.073
   29  0.070  0.000  0.000  0.008  0.000  0.000  0.000  0.000  0.000  0.079
   30  0.069  0.000  0.000  0.008  0.000  0.000  0.000  0.000  0.000  0.077
   31  0.072  0.000  0.000  0.008  0.000  0.000  0.000  0.000  0.000  0.081
   32  0.067  0.000  0.000  0.008  0.000  0.000  0.000  0.000  0.000  0.075
tot    0.793  0.024  0.019  0.051  0.000  0.000  0.000  0.000  0.000  0.887
 
band     5 # energy  -19.87745521 # occ.  2.00000000
 
ion      s     py     pz     px    dxy    dyz    dz2    dxz  x2-y2    tot
    1  0.000  0.000  0.000  0.000  0.000  0.000  0.000  0.000  0.000  0.001
    2  0.000  0.000  0.000  0.000  0.000  0.000  0.000  0.000  0.000  0.001
    3  0.000  0.000  0.000  0.000  0.000  0.000  0.000  0.000  0.000  0.001
    4  0.000  0.000  0.000  0.000  0.000  0.000  0.000  0.000  0.000  0.001
    5  0.013  0.000  0.001  0.002  0.000  0.000  0.000  0.000  0.000  0.016
    6  0.012  0.000  0.001  0.002  0.000  0.000  0.000  0.000  0.000  0.015
    7  0.012  0.000  0.001  0.002  0.000  0.000  0.000  0.000  0.000  0.015
    8  0.012  0.000  0.001  0.002  0.000  0.000  0.000  0.000  0.000  0.015
    9  0.001  0.000  0.000  0.000  0.000  0.000  0.000  0.000  0.000  0.001
   10  0.001  0.000  0.000  0.000  0.000  0.000  0.000  0.000  0.000  0.001
   11  0.001  0.000  0.000  0.000  0.000  0.000  0.000  0.000  0.000  0.001
   12  0.001  0.000  0.000  0.000  0.000  0.000  0.000  0.000  0.000  0.001
   13  0.007  0.002  0.001  0.001  0.000  0.000  0.000  0.000  0.000  0.011
   14  0.006  0.002  0.001  0.001  0.000  0.000  0.000  0.000  0.000  0.010
   15  0.007  0.002  0.001  0.001  0.000  0.000  0.000  0.000  0.000  0.010
   16  0.006  0.002  0.001  0.001  0.000  0.000  0.000  0.000  0.000  0.010
   17  0.019  0.000  0.001  0.004  0.000  0.000  0.000  0.000  0.000  0.024
   18  0.017  0.000  0.001  0.004  0.000  0.000  0.000  0.000  0.000  0.022
   19  0.018  0.000  0.001  0.004  0.000  0.000  0.000  0.000  0.000  0.023
   20  0.018  0.000  0.001  0.004  0.000  0.000  0.000  0.000  0.000  0.023
   21  0.139  0.000  0.005  0.000  0.000  0.000  0.000  0.000  0.000  0.145
   22  0.129  0.000  0.005  0.000  0.000  0.000  0.000  0.000  0.000  0.134
   23  0.134  0.000  0.005  0.000  0.000  0.000  0.000  0.000  0.000  0.140
   24  0.131  0.000  0.005  0.000  0.000  0.000  0.000  0.000  0.000  0.136
   25  0.018  0.001  0.000  0.001  0.000  0.000  0.000  0.000  0.000  0.019
   26  0.017  0.000  0.000  0.001  0.000  0.000  0.000  0.000  0.000  0.018
   27  0.017  0.000  0.000  0.001  0.000  0.000  0.000  0.000  0.000  0.019
   28  0.017  0.000  0.000  0.001  0.000  0.000  0.000  0.000  0.000  0.018
   29  0.012  0.000  0.000  0.002  0.000  0.000  0.000  0.000  0.000  0.014
   30  0.011  0.000  0.000  0.002  0.000  0.000  0.000  0.000  0.000  0.013
   31  0.012  0.000  0.000  0.002  0.000  0.000  0.000  0.000  0.000  0.014
   32  0.011  0.000  0.000  0.002  0.000  0.000  0.000  0.000  0.000  0.013
tot    0.798  0.012  0.033  0.040  0.000  0.000  0.000  0.000  0.000  0.882
 
band     6 # energy  -19.86325532 # occ.  2.00000000
 
ion      s     py     pz     px    dxy    dyz    dz2    dxz  x2-y2    tot
    1  0.000  0.000  0.000  0.000  0.000  0.000  0.000  0.000  0.000  0.000
    2  0.000  0.000  0.000  0.000  0.000  0.000  0.000  0.000  0.000  0.000
    3  0.000  0.000  0.000  0.000  0.000  0.000  0.000  0.000  0.000  0.000
    4  0.000  0.000  0.000  0.000  0.000  0.000  0.000  0.000  0.000  0.000
    5  0.012  0.000  0.001  0.002  0.000  0.000  0.000  0.000  0.000  0.015
    6  0.012  0.000  0.001  0.002  0.000  0.000  0.000  0.000  0.000  0.015
    7  0.011  0.000  0.001  0.002  0.000  0.000  0.000  0.000  0.000  0.014
    8  0.012  0.000  0.001  0.002  0.000  0.000  0.000  0.000  0.000  0.015
    9  0.001  0.000  0.000  0.000  0.000  0.000  0.000  0.000  0.000  0.001
   10  0.001  0.000  0.000  0.000  0.000  0.000  0.000  0.000  0.000  0.001
   11  0.001  0.000  0.000  0.000  0.000  0.000  0.000  0.000  0.000  0.001
   12  0.001  0.000  0.000  0.000  0.000  0.000  0.000  0.000  0.000  0.001
   13  0.007  0.002  0.001  0.001  0.000  0.000  0.000  0.000  0.000  0.011
   14  0.008  0.002  0.001  0.001  0.000  0.000  0.000  0.000  0.000  0.012
   15  0.007  0.002  0.001  0.001  0.000  0.000  0.000  0.000  0.000  0.011
   16  0.008  0.002  0.001  0.001  0.000  0.000  0.000  0.000  0.000  0.012
   17  0.017  0.000  0.001  0.004  0.000  0.000  0.000  0.000  0.000  0.022
   18  0.018  0.000  0.001  0.004  0.000  0.000  0.000  0.000  0.000  0.023
   19  0.017  0.000  0.001  0.004  0.000  0.000  0.000  0.000  0.000  0.022
   20  0.018  0.000  0.001  0.004  0.000  0.000  0.000  0.000  0.000  0.023
   21  0.129  0.000  0.005  0.000  0.000  0.000  0.000  0.000  0.000  0.135
   22  0.133  0.000  0.005  0.000  0.000  0.000  0.000  0.000  0.000  0.139
   23  0.124  0.000  0.004  0.000  0.000  0.000  0.000  0.000  0.000  0.129
   24  0.134  0.000  0.005  0.000  0.000  0.000  0.000  0.000  0.000  0.139
   25  0.018  0.000  0.000  0.001  0.000  0.000  0.000  0.000  0.000  0.020
   26  0.019  0.000  0.000  0.001  0.000  0.000  0.000  0.000  0.000  0.021
   27  0.018  0.000  0.000  0.001  0.000  0.000  0.000  0.000  0.000  0.020
   28  0.019  0.000  0.000  0.001  0.000  0.000  0.000  0.000  0.000  0.021
   29  0.013  0.000  0.000  0.002  0.000  0.000  0.000  0.000  0.000  0.015
   30  0.013  0.000  0.000  0.002  0.000  0.000  0.000  0.000  0.000  0.016
   31  0.013  0.000  0.000  0.002  0.000  0.000  0.000  0.000  0.000  0.015
   32  0.013  0.000  0.000  0.002  0.000  0.000  0.000  0.000  0.000  0.016
tot    0.797  0.012  0.034  0.041  0.000  0.000  0.000  0.000  0.000  0.884
 
band     7 # energy  -19.75394249 # occ.  2.00000000
 
ion      s     py     pz     px    dxy    dyz    dz2    dxz  x2-y2    tot
    1  0.000  0.000  0.000  0.000  0.000  0.000  0.000  0.000  0.000  0.001
    2  0.000  0.000  0.000  0.000  0.000  0.000  0.000  0.000  0.000  0.001
    3  0.000  0.000  0.000  0.000  0.000  0.000  0.000  0.000  0.000  0.001
    4  0.000  0.000  0.000  0.000  0.000  0.000  0.000  0.000  0.000  0.001
    5  0.016  0.000  0.001  0.002  0.000  0.000  0.000  0.000  0.000  0.019
    6  0.016  0.000  0.001  0.002  0.000  0.000  0.000  0.000  0.000  0.019
    7  0.016  0.000  0.001  0.002  0.000  0.000  0.000  0.000  0.000  0.020
    8  0.016  0.000  0.001  0.002  0.000  0.000  0.000  0.000  0.000  0.019
    9  0.000  0.000  0.000  0.000  0.000  0.000  0.000  0.000  0.000  0.000
   10  0.000  0.000  0.000  0.000  0.000  0.000  0.000  0.000  0.000  0.000
   11  0.000  0.000  0.000  0.000  0.000  0.000  0.000  0.000  0.000  0.000
   12  0.000  0.000  0.000  0.000  0.000  0.000  0.000  0.000  0.000  0.000
   13  0.001  0.000  0.001  0.000  0.000  0.000  0.000  0.000  0.000  0.002
   14  0.001  0.000  0.001  0.000  0.000  0.000  0.000  0.000  0.000  0.002
   15  0.001  0.000  0.001  0.000  0.000  0.000  0.000  0.000  0.000  0.003
   16  0.001  0.000  0.001  0.000  0.000  0.000  0.000  0.000  0.000  0.002
   17  0.011  0.001  0.003  0.005  0.000  0.000  0.000  0.000  0.000  0.020
   18  0.011  0.001  0.003  0.005  0.000  0.000  0.000  0.000  0.000  0.020
   19  0.011  0.002  0.003  0.006  0.000  0.000  0.000  0.000  0.000  0.021
   20  0.010  0.001  0.003  0.005  0.000  0.000  0.000  0.000  0.000  0.020
   21  0.163  0.000  0.005  0.000  0.000  0.000  0.000  0.000  0.000  0.169
   22  0.162  0.000  0.005  0.000  0.000  0.000  0.000  0.000  0.000  0.168
   23  0.169  0.000  0.006  0.000  0.000  0.000  0.000  0.000  0.000  0.175
   24  0.161  0.000  0.005  0.000  0.000  0.000  0.000  0.000  0.000  0.167
   25  0.004  0.000  0.000  0.000  0.000  0.000  0.000  0.000  0.000  0.004
   26  0.004  0.000  0.000  0.000  0.000  0.000  0.000  0.000  0.000  0.004
   27  0.004  0.000  0.000  0.000  0.000  0.000  0.000  0.000  0.000  0.004
   28  0.004  0.000  0.000  0.000  0.000  0.000  0.000  0.000  0.000  0.004
   29  0.002  0.000  0.000  0.001  0.000  0.000  0.000  0.000  0.000  0.003
   30  0.002  0.000  0.000  0.001  0.000  0.000  0.000  0.000  0.000  0.003
   31  0.002  0.000  0.000  0.001  0.000  0.000  0.000  0.000  0.000  0.003
   32  0.002  0.000  0.000  0.001  0.000  0.000  0.000  0.000  0.000  0.003
tot    0.795  0.009  0.040  0.037  0.000  0.000  0.000  0.000  0.000  0.881
 
band     8 # energy  -19.70864769 # occ.  2.00000000
 
ion      s     py     pz     px    dxy    dyz    dz2    dxz  x2-y2    tot
    1  0.000  0.000  0.000  0.000  0.000  0.000  0.000  0.000  0.000  0.001
    2  0.000  0.000  0.000  0.000  0.000  0.000  0.000  0.000  0.000  0.001
    3  0.000  0.000  0.000  0.000  0.000  0.000  0.000  0.000  0.000  0.001
    4  0.000  0.000  0.000  0.000  0.000  0.000  0.000  0.000  0.000  0.001
    5  0.015  0.000  0.001  0.002  0.000  0.000  0.000  0.000  0.000  0.019
    6  0.016  0.000  0.001  0.002  0.000  0.000  0.000  0.000  0.000  0.019
    7  0.016  0.000  0.001  0.002  0.000  0.000  0.000  0.000  0.000  0.019
    8  0.016  0.000  0.001  0.002  0.000  0.000  0.000  0.000  0.000  0.019
    9  0.000  0.000  0.000  0.000  0.000  0.000  0.000  0.000  0.000  0.000
   10  0.000  0.000  0.000  0.000  0.000  0.000  0.000  0.000  0.000  0.000
   11  0.000  0.000  0.000  0.000  0.000  0.000  0.000  0.000  0.000  0.000
   12  0.000  0.000  0.000  0.000  0.000  0.000  0.000  0.000  0.000  0.000
   13  0.002  0.000  0.001  0.000  0.000  0.000  0.000  0.000  0.000  0.004
   14  0.002  0.000  0.001  0.000  0.000  0.000  0.000  0.000  0.000  0.004
   15  0.002  0.000  0.001  0.000  0.000  0.000  0.000  0.000  0.000  0.004
   16  0.002  0.000  0.001  0.000  0.000  0.000  0.000  0.000  0.000  0.004
   17  0.010  0.001  0.003  0.006  0.000  0.000  0.000  0.000  0.000  0.019
   18  0.010  0.001  0.003  0.006  0.000  0.000  0.000  0.000  0.000  0.020
   19  0.010  0.001  0.003  0.006  0.000  0.000  0.000  0.000  0.000  0.020
   20  0.010  0.001  0.003  0.006  0.000  0.000  0.000  0.000  0.000  0.020
   21  0.158  0.000  0.005  0.000  0.000  0.000  0.000  0.000  0.000  0.164
   22  0.165  0.000  0.006  0.000  0.000  0.000  0.000  0.000  0.000  0.171
   23  0.162  0.000  0.006  0.000  0.000  0.000  0.000  0.000  0.000  0.168
   24  0.163  0.000  0.006  0.000  0.000  0.000  0.000  0.000  0.000  0.169
   25  0.004  0.000  0.000  0.000  0.000  0.000  0.000  0.000  0.000  0.005
   26  0.005  0.000  0.000  0.000  0.000  0.000  0.000  0.000  0.000  0.005
   27  0.005  0.000  0.000  0.000  0.000  0.000  0.000  0.000  0.000  0.005
   28  0.004  0.000  0.000  0.000  0.000  0.000  0.000  0.000  0.000  0.005
   29  0.004  0.000  0.000  0.001  0.000  0.000  0.000  0.000  0.000  0.005
   30  0.004  0.000  0.000  0.001  0.000  0.000  0.000  0.000  0.000  0.005
   31  0.004  0.000  0.000  0.001  0.000  0.000  0.000  0.000  0.000  0.005
   32  0.004  0.000  0.000  0.001  0.000  0.000  0.000  0.000  0.000  0.005
tot    0.796  0.009  0.041  0.040  0.000  0.000  0.000  0.000  0.000  0.886
 
band     9 # energy  -18.65141251 # occ.  2.00000000
 
ion      s     py     pz     px    dxy    dyz    dz2    dxz  x2-y2    tot
    1  0.000  0.000  0.000  0.001  0.000  0.000  0.000  0.000  0.000  0.001
    2  0.000  0.000  0.000  0.001  0.000  0.000  0.000  0.000  0.000  0.001
    3  0.000  0.000  0.000  0.001  0.000  0.000  0.000  0.000  0.000  0.001
    4  0.000  0.000  0.000  0.001  0.000  0.000  0.000  0.000  0.000  0.001
    5  0.000  0.000  0.000  0.000  0.000  0.000  0.000  0.000  0.000  0.000
    6  0.000  0.000  0.000  0.000  0.000  0.000  0.000  0.000  0.000  0.000
    7  0.000  0.000  0.000  0.000  0.000  0.000  0.000  0.000  0.000  0.000
    8  0.000  0.000  0.000  0.000  0.000  0.000  0.000  0.000  0.000  0.000
    9  0.000  0.000  0.000  0.000  0.000  0.000  0.000  0.000  0.000  0.000
   10  0.000  0.000  0.000  0.000  0.000  0.000  0.000  0.000  0.000  0.000
   11  0.000  0.000  0.000  0.000  0.000  0.000  0.000  0.000  0.000  0.000
   12  0.000  0.000  0.000  0.000  0.000  0.000  0.000  0.000  0.000  0.000
   13  0.000  0.004  0.003  0.031  0.000  0.000  0.000  0.000  0.000  0.038
   14  0.000  0.003  0.003  0.029  0.000  0.000  0.000  0.000  0.000  0.035
   15  0.000  0.003  0.003  0.028  0.000  0.000  0.000  0.000  0.000  0.034
   16  0.000  0.004  0.003  0.032  0.000  0.000  0.000  0.000  0.000  0.039
   17  0.000  0.000  0.000  0.000  0.000  0.000  0.000  0.000  0.000  0.000
   18  0.000  0.000  0.000  0.000  0.000  0.000  0.000  0.000  0.000  0.000
   19  0.000  0.000  0.000  0.000  0.000  0.000  0.000  0.000  0.000  0.000
   20  0.000  0.000  0.000  0.000  0.000  0.000  0.000  0.000  0.000  0.000
   21  0.000  0.000  0.000  0.000  0.000  0.000  0.000  0.000  0.000  0.000
   22  0.000  0.000  0.000  0.000  0.000  0.000  0.000  0.000  0.000  0.000
   23  0.000  0.000  0.000  0.000  0.000  0.000  0.000  0.000  0.000  0.000
   24  0.000  0.000  0.000  0.000  0.000  0.000  0.000  0.000  0.000  0.000
   25  0.093  0.003  0.002  0.001  0.000  0.000  0.000  0.000  0.000  0.099
   26  0.085  0.002  0.002  0.001  0.000  0.000  0.000  0.000  0.000  0.090
   27  0.082  0.002  0.002  0.001  0.000  0.000  0.000  0.000  0.000  0.087
   28  0.095  0.003  0.002  0.001  0.000  0.000  0.000  0.000  0.000  0.102
   29  0.094  0.000  0.000  0.006  0.000  0.000  0.000  0.000  0.000  0.100
   30  0.086  0.000  0.000  0.005  0.000  0.000  0.000  0.000  0.000  0.091
   31  0.083  0.000  0.000  0.005  0.000  0.000  0.000  0.000  0.000  0.089
   32  0.097  0.000  0.000  0.006  0.000  0.000  0.000  0.000  0.000  0.103
tot    0.717  0.025  0.020  0.151  0.000  0.000  0.000  0.000  0.000  0.914
 
band    10 # energy  -18.62873920 # occ.  2.00000000
 
ion      s     py     pz     px    dxy    dyz    dz2    dxz  x2-y2    tot
    1  0.000  0.000  0.000  0.000  0.000  0.000  0.000  0.000  0.000  0.001
    2  0.000  0.000  0.000  0.000  0.000  0.000  0.000  0.000  0.000  0.001
    3  0.000  0.000  0.000  0.000  0.000  0.000  0.000  0.000  0.000  0.001
    4  0.000  0.000  0.000  0.000  0.000  0.000  0.000  0.000  0.000  0.001
    5  0.000  0.000  0.000  0.000  0.000  0.000  0.000  0.000  0.000  0.000
    6  0.000  0.000  0.000  0.000  0.000  0.000  0.000  0.000  0.000  0.000
    7  0.000  0.000  0.000  0.000  0.000  0.000  0.000  0.000  0.000  0.000
    8  0.000  0.000  0.000  0.000  0.000  0.000  0.000  0.000  0.000  0.000
    9  0.000  0.000  0.000  0.000  0.000  0.000  0.000  0.000  0.000  0.000
   10  0.000  0.000  0.000  0.000  0.000  0.000  0.000  0.000  0.000  0.000
   11  0.000  0.000  0.000  0.000  0.000  0.000  0.000  0.000  0.000  0.000
   12  0.000  0.000  0.000  0.000  0.000  0.000  0.000  0.000  0.000  0.000
   13  0.000  0.004  0.004  0.037  0.000  0.000  0.000  0.000  0.000  0.045
   14  0.000  0.003  0.002  0.024  0.000  0.000  0.000  0.000  0.000  0.029
   15  0.000  0.003  0.002  0.024  0.000  0.000  0.000  0.000  0.000  0.030
   16  0.000  0.004  0.004  0.036  0.000  0.000  0.000  0.000  0.000  0.044
   17  0.000  0.000  0.000  0.000  0.000  0.000  0.000  0.000  0.000  0.000
   18  0.000  0.000  0.000  0.000  0.000  0.000  0.000  0.000  0.000  0.000
   19  0.000  0.000  0.000  0.000  0.000  0.000  0.000  0.000  0.000  0.000
   20  0.000  0.000  0.000  0.000  0.000  0.000  0.000  0.000  0.000  0.000
   21  0.000  0.000  0.000  0.000  0.000  0.000  0.000  0.000  0.000  0.000
   22  0.000  0.000  0.000  0.000  0.000  0.000  0.000  0.000  0.000  0.000
   23  0.000  0.000  0.000  0.000  0.000  0.000  0.000  0.000  0.000  0.000
   24  0.000  0.000  0.000  0.000  0.000  0.000  0.000  0.000  0.000  0.000
   25  0.109  0.003  0.002  0.002  0.000  0.000  0.000  0.000  0.000  0.116
   26  0.068  0.002  0.002  0.001  0.000  0.000  0.000  0.000  0.000  0.073
   27  0.070  0.002  0.002  0.001  0.000  0.000  0.000  0.000  0.000  0.075
   28  0.105  0.003  0.002  0.001  0.000  0.000  0.000  0.000  0.000  0.112
   29  0.111  0.000  0.000  0.007  0.000  0.000  0.000  0.000  0.000  0.118
   30  0.071  0.000  0.000  0.004  0.000  0.000  0.000  0.000  0.000  0.076
   31  0.074  0.000  0.000  0.004  0.000  0.000  0.000  0.000  0.000  0.078
   32  0.108  0.000  0.000  0.007  0.000  0.000  0.000  0.000  0.000  0.115
tot    0.719  0.026  0.021  0.150  0.000  0.000  0.000  0.000  0.000  0.916
 
band    11 # energy  -18.61808295 # occ.  2.00000000
 
ion      s     py     pz     px    dxy    dyz    dz2    dxz  x2-y2    tot
    1  0.000  0.000  0.000  0.001  0.000  0.000  0.000  0.000  0.000  0.001
    2  0.000  0.000  0.000  0.001  0.000  0.000  0.000  0.000  0.000  0.001
    3  0.000  0.000  0.000  0.001  0.000  0.000  0.000  0.000  0.000  0.001
    4  0.000  0.000  0.000  0.001  0.000  0.000  0.000  0.000  0.000  0.001
    5  0.000  0.000  0.000  0.000  0.000  0.000  0.000  0.000  0.000  0.000
    6  0.000  0.000  0.000  0.000  0.000  0.000  0.000  0.000  0.000  0.000
    7  0.000  0.000  0.000  0.000  0.000  0.000  0.000  0.000  0.000  0.000
    8  0.000  0.000  0.000  0.000  0.000  0.000  0.000  0.000  0.000  0.000
    9  0.000  0.000  0.000  0.000  0.000  0.000  0.000  0.000  0.000  0.000
   10  0.000  0.000  0.000  0.000  0.000  0.000  0.000  0.000  0.000  0.000
   11  0.000  0.000  0.000  0.000  0.000  0.000  0.000  0.000  0.000  0.000
   12  0.000  0.000  0.000  0.000  0.000  0.000  0.000  0.000  0.000  0.000
   13  0.000  0.003  0.002  0.021  0.000  0.000  0.000  0.000  0.000  0.026
   14  0.000  0.005  0.004  0.039  0.000  0.000  0.000  0.000  0.000  0.048
   15  0.000  0.004  0.004  0.033  0.000  0.000  0.000  0.000  0.000  0.041
   16  0.000  0.003  0.003  0.026  0.000  0.000  0.000  0.000  0.000  0.032
   17  0.000  0.000  0.000  0.000  0.000  0.000  0.000  0.000  0.000  0.000
   18  0.000  0.000  0.000  0.000  0.000  0.000  0.000  0.000  0.000  0.000
   19  0.000  0.000  0.000  0.000  0.000  0.000  0.000  0.000  0.000  0.000
   20  0.000  0.000  0.000  0.000  0.000  0.000  0.000  0.000  0.000  0.000
   21  0.000  0.000  0.000  0.000  0.000  0.000  0.000  0.000  0.000  0.000
   22  0.000  0.000  0.000  0.000  0.000  0.000  0.000  0.000  0.000  0.000
   23  0.000  0.000  0.000  0.000  0.000  0.000  0.000  0.000  0.000  0.000
   24  0.000  0.000  0.000  0.000  0.000  0.000  0.000  0.000  0.000  0.000
   25  0.066  0.002  0.001  0.001  0.000  0.000  0.000  0.000  0.000  0.070
   26  0.119  0.003  0.003  0.002  0.000  0.000  0.000  0.000  0.000  0.127
   27  0.102  0.003  0.002  0.001  0.000  0.000  0.000  0.000  0.000  0.108
   28  0.080  0.002  0.002  0.001  0.000  0.000  0.000  0.000  0.000  0.085
   29  0.062  0.000  0.000  0.004  0.000  0.000  0.000  0.000  0.000  0.066
   30  0.115  0.000  0.000  0.007  0.000  0.000  0.000  0.000  0.000  0.123
   31  0.098  0.000  0.000  0.006  0.000  0.000  0.000  0.000  0.000  0.104
   32  0.076  0.000  0.000  0.005  0.000  0.000  0.000  0.000  0.000  0.081
tot    0.720  0.026  0.021  0.150  0.000  0.000  0.000  0.000  0.000  0.918
 
band    12 # energy  -18.61470143 # occ.  2.00000000
 
ion      s     py     pz     px    dxy    dyz    dz2    dxz  x2-y2    tot
    1  0.000  0.000  0.000  0.000  0.000  0.000  0.000  0.000  0.000  0.001
    2  0.000  0.000  0.000  0.000  0.000  0.000  0.000  0.000  0.000  0.001
    3  0.000  0.000  0.000  0.000  0.000  0.000  0.000  0.000  0.000  0.001
    4  0.000  0.000  0.000  0.000  0.000  0.000  0.000  0.000  0.000  0.001
    5  0.000  0.000  0.000  0.000  0.000  0.000  0.000  0.000  0.000  0.000
    6  0.000  0.000  0.000  0.000  0.000  0.000  0.000  0.000  0.000  0.000
    7  0.000  0.000  0.000  0.000  0.000  0.000  0.000  0.000  0.000  0.000
    8  0.000  0.000  0.000  0.000  0.000  0.000  0.000  0.000  0.000  0.000